 Entering Gaussian System, Link 0=g16
 Initial command:
 /software/rhel9/manual/install/gaussian/c01/avx2/tar/g16/l1.exe "/scratch/slurm-21172167/Gau-897206.inp" -scrdir="/scratch/slurm-21172167/"
 Entering Link 1 = /software/rhel9/manual/install/gaussian/c01/avx2/tar/g16/l1.exe PID=    897207.
  
 Copyright (c) 1988-2019, Gaussian, Inc.  All Rights Reserved.
  
 This is part of the Gaussian(R) 16 program.  It is based on
 the Gaussian(R) 09 system (copyright 2009, Gaussian, Inc.),
 the Gaussian(R) 03 system (copyright 2003, Gaussian, Inc.),
 the Gaussian(R) 98 system (copyright 1998, Gaussian, Inc.),
 the Gaussian(R) 94 system (copyright 1995, Gaussian, Inc.),
 the Gaussian 92(TM) system (copyright 1992, Gaussian, Inc.),
 the Gaussian 90(TM) system (copyright 1990, Gaussian, Inc.),
 the Gaussian 88(TM) system (copyright 1988, Gaussian, Inc.),
 the Gaussian 86(TM) system (copyright 1986, Carnegie Mellon
 University), and the Gaussian 82(TM) system (copyright 1983,
 Carnegie Mellon University). Gaussian is a federally registered
 trademark of Gaussian, Inc.
  
 This software contains proprietary and confidential information,
 including trade secrets, belonging to Gaussian, Inc.
  
 This software is provided under written license and may be
 used, copied, transmitted, or stored only in accord with that
 written license.
  
 The following legend is applicable only to US Government
 contracts under FAR:
  
                    RESTRICTED RIGHTS LEGEND
  
 Use, reproduction and disclosure by the US Government is
 subject to restrictions as set forth in subparagraphs (a)
 and (c) of the Commercial Computer Software - Restricted
 Rights clause in FAR 52.227-19.
  
 Gaussian, Inc.
 340 Quinnipiac St., Bldg. 40, Wallingford CT 06492
  
  
 ---------------------------------------------------------------
 Warning -- This program may not be used in any manner that
 competes with the business of Gaussian, Inc. or will provide
 assistance to any competitor of Gaussian, Inc.  The licensee
 of this program is prohibited from giving any competitor of
 Gaussian, Inc. access to this program.  By using this program,
 the user acknowledges that Gaussian, Inc. is engaged in the
 business of creating and licensing software in the field of
 computational chemistry and represents and warrants to the
 licensee that it is not a competitor of Gaussian, Inc. and that
 it will not use this program in any manner prohibited above.
 ---------------------------------------------------------------
  

 Cite this work as:
 Gaussian 16, Revision C.01,
 M. J. Frisch, G. W. Trucks, H. B. Schlegel, G. E. Scuseria, 
 M. A. Robb, J. R. Cheeseman, G. Scalmani, V. Barone, 
 G. A. Petersson, H. Nakatsuji, X. Li, M. Caricato, A. V. Marenich, 
 J. Bloino, B. G. Janesko, R. Gomperts, B. Mennucci, H. P. Hratchian, 
 J. V. Ortiz, A. F. Izmaylov, J. L. Sonnenberg, D. Williams-Young, 
 F. Ding, F. Lipparini, F. Egidi, J. Goings, B. Peng, A. Petrone, 
 T. Henderson, D. Ranasinghe, V. G. Zakrzewski, J. Gao, N. Rega, 
 G. Zheng, W. Liang, M. Hada, M. Ehara, K. Toyota, R. Fukuda, 
 J. Hasegawa, M. Ishida, T. Nakajima, Y. Honda, O. Kitao, H. Nakai, 
 T. Vreven, K. Throssell, J. A. Montgomery, Jr., J. E. Peralta, 
 F. Ogliaro, M. J. Bearpark, J. J. Heyd, E. N. Brothers, K. N. Kudin, 
 V. N. Staroverov, T. A. Keith, R. Kobayashi, J. Normand, 
 K. Raghavachari, A. P. Rendell, J. C. Burant, S. S. Iyengar, 
 J. Tomasi, M. Cossi, J. M. Millam, M. Klene, C. Adamo, R. Cammi, 
 J. W. Ochterski, R. L. Martin, K. Morokuma, O. Farkas, 
 J. B. Foresman, and D. J. Fox, Gaussian, Inc., Wallingford CT, 2019.
 
 ******************************************
 Gaussian 16:  ES64L-G16RevC.01  3-Jul-2019
                16-Oct-2025 
 ******************************************
 --------------------------------------------------
 # SP ROHF/CBSB3 Pop=(Full) scf=tight IOp(6/27=122)
 --------------------------------------------------
 1/38=1,172=1/1;
 2/12=2,17=6,18=5,40=1/2;
 3/5=12,11=2,25=1,30=1,116=101/1,2,3;
 4//1;
 5/5=2,32=2,38=5/2;
 6/7=3,27=122,28=1/1;
 99/5=1,9=1/99;
 --------
 molecule
 --------
 Symbolic Z-matrix:
 Charge =  0 Multiplicity = 1
 C                    -1.64155   0.48358   0.03583 
 C                    -0.76891  -0.50438   0.51785 
 O                     0.4108   -1.69634  -0.80283 
 C                     0.72845  -0.73576   0.03795 
 C                     1.35688   0.53207  -0.54723 
 H                    -0.88243   0.36753   1.32759 
 H                    -2.71247   0.33387  -0.02416 
 H                    -1.24673   1.43103  -0.30446 
 H                    -1.21122  -1.41089   0.90734 
 H                     1.31444  -1.03495   0.93168 
 H                     0.79776   0.86847  -1.41993 
 H                     1.42396   1.33822   0.18949 
 H                     2.3678    0.28978  -0.87416 
 
                          Input orientation:                          
 ---------------------------------------------------------------------
 Center     Atomic      Atomic             Coordinates (Angstroms)
 Number     Number       Type             X           Y           Z
 ---------------------------------------------------------------------
      1          6           0       -1.641552    0.483576    0.035835
      2          6           0       -0.768912   -0.504382    0.517852
      3          8           0        0.410797   -1.696339   -0.802834
      4          6           0        0.728454   -0.735764    0.037950
      5          6           0        1.356878    0.532067   -0.547227
      6          1           0       -0.882435    0.367526    1.327590
      7          1           0       -2.712472    0.333869   -0.024165
      8          1           0       -1.246729    1.431032   -0.304456
      9          1           0       -1.211216   -1.410892    0.907339
     10          1           0        1.314439   -1.034950    0.931679
     11          1           0        0.797757    0.868474   -1.419929
     12          1           0        1.423960    1.338223    0.189487
     13          1           0        2.367802    0.289778   -0.874159
 ---------------------------------------------------------------------
                    Distance matrix (angstroms):
                    1          2          3          4          5
     1  C    0.000000
     2  C    1.403532   0.000000
     3  O    3.109265   2.134639   0.000000
     4  C    2.665280   1.589323   1.315495   0.000000
     5  C    3.054979   2.593762   2.434377   1.531256   0.000000
     6  H    1.502783   1.195319   3.235845   2.339954   2.925156
     7  H    1.082997   2.184920   3.805638   3.603879   4.107614
     8  H    1.081368   2.156462   3.574384   2.951880   2.765113
     9  H    2.129252   1.081246   2.374257   2.230236   3.533547
    10  H    3.441852   2.189317   2.064592   1.109794   2.155112
    11  H    2.866640   2.845028   2.666235   2.168824   1.089677
    12  H    3.186125   2.883002   3.349591   2.192741   1.094136
    13  H    4.115892   3.522408   2.789196   2.138023   1.089750
                    6          7          8          9         10
     6  H    0.000000
     7  H    2.275393   0.000000
     8  H    1.981749   1.852224   0.000000
     9  H    1.856738   2.483075   3.089699   0.000000
    10  H    2.636274   4.359280   3.764131   2.553597   0.000000
    11  H    3.259273   3.815190   2.395971   3.827226   3.069210
    12  H    2.748997   4.261976   2.717567   3.875189   2.488934
    13  H    3.926549   5.151080   3.832996   4.344581   2.474981
                   11         12         13
    11  H    0.000000
    12  H    1.789697   0.000000
    13  H    1.760056   1.766754   0.000000
 Stoichiometry    C4H8O
 Framework group  C1[X(C4H8O)]
 Deg. of freedom    33
 Full point group                 C1      NOp   1
 Largest Abelian subgroup         C1      NOp   1
 Largest concise Abelian subgroup C1      NOp   1
                         Standard orientation:                         
 ---------------------------------------------------------------------
 Center     Atomic      Atomic             Coordinates (Angstroms)
 Number     Number       Type             X           Y           Z
 ---------------------------------------------------------------------
      1          6           0       -1.793533    0.392118   -0.308137
      2          6           0       -0.879921   -0.386905    0.418730
      3          8           0        0.852305   -1.229563   -0.501054
      4          6           0        0.702877   -0.252605    0.367133
      5          6           0        1.156857    1.145439   -0.061957
      6          1           0       -1.403980    0.406367    1.143208
      7          1           0       -2.744795    0.003886   -0.650569
      8          1           0       -1.550318    1.416310   -0.555595
      9          1           0       -1.190176   -1.383876    0.699593
     10          1           0        1.079515   -0.441815    1.393772
     11          1           0        0.791150    1.376246   -1.062149
     12          1           0        0.836466    1.918636    0.642778
     13          1           0        2.246014    1.152475   -0.097217
 ---------------------------------------------------------------------
 Rotational constants (GHZ):           7.2181807           4.2977877           3.1999896
 Standard basis: CBSB3 (5D, 7F)
 There are   275 symmetry adapted cartesian basis functions of A   symmetry.
 There are   250 symmetry adapted basis functions of A   symmetry.
   250 basis functions,   356 primitive gaussians,   275 cartesian basis functions
    20 alpha electrons       20 beta electrons
       nuclear repulsion energy       178.2328261188 Hartrees.
 NAtoms=   13 NActive=   13 NUniq=   13 SFac= 1.00D+00 NAtFMM=   60 NAOKFM=F Big=F
 Integral buffers will be    131072 words long.
 Raffenetti 2 integral format.
 Two-electron integral symmetry is turned on.
 One-electron integrals computed using PRISM.
 NBasis=   250 RedAO= T EigKep=  1.85D-05  NBF=   250
 NBsUse=   250 1.00D-06 EigRej= -1.00D+00 NBFU=   250
 ExpMin= 3.60D-02 ExpMax= 8.59D+03 ExpMxC= 1.30D+03 IAcc=3 IRadAn=         5 AccDes= 0.00D+00
 Harris functional with IExCor=  205 and IRadAn=       5 diagonalized for initial guess.
 HarFok:  IExCor=  205 AccDes= 0.00D+00 IRadAn=         5 IDoV= 1 UseB2=F ITyADJ=14
 ICtDFT=  3500011 ScaDFX=  1.000000  1.000000  1.000000  1.000000
 FoFCou: FMM=F IPFlag=           0 FMFlag=      100000 FMFlg1=           0
         NFxFlg=           0 DoJE=T BraDBF=F KetDBF=T FulRan=T
         wScrn=  0.000000 ICntrl=       500 IOpCl=  0 I1Cent=   200000004 NGrid=           0
         NMat0=    1 NMatS0=      1 NMatT0=    0 NMatD0=    1 NMtDS0=    0 NMtDT0=    0
 Petite list used in FoFCou.
 Requested convergence on RMS density matrix=1.00D-08 within 128 cycles.
 Requested convergence on MAX density matrix=1.00D-06.
 Requested convergence on             energy=1.00D-06.
 No special actions if energy rises.
 SCF Done:  E(ROHF) =  -230.873608911     A.U. after   16 cycles
            NFock= 16  Conv=0.51D-08     -V/T= 2.0008
 <Sx>= 0.0000 <Sy>= 0.0000 <Sz>= 0.0000 <S**2>=-0.0000 S=-0.0000
 <L.S>=  0.00000000000    
 Annihilation of the first spin contaminant:
 S**2 before annihilation    -0.0000,   after     0.0000

 **********************************************************************

            Population analysis using the SCF Density.

 **********************************************************************

 Orbital symmetries:
       Occupied  (A) (A) (A) (A) (A) (A) (A) (A) (A) (A) (A) (A)
                 (A) (A) (A) (A) (A) (A) (A) (A)
       Virtual   (A) (A) (A) (A) (A) (A) (A) (A) (A) (A) (A) (A)
                 (A) (A) (A) (A) (A) (A) (A) (A) (A) (A) (A) (A)
                 (A) (A) (A) (A) (A) (A) (A) (A) (A) (A) (A) (A)
                 (A) (A) (A) (A) (A) (A) (A) (A) (A) (A) (A) (A)
                 (A) (A) (A) (A) (A) (A) (A) (A) (A) (A) (A) (A)
                 (A) (A) (A) (A) (A) (A) (A) (A) (A) (A) (A) (A)
                 (A) (A) (A) (A) (A) (A) (A) (A) (A) (A) (A) (A)
                 (A) (A) (A) (A) (A) (A) (A) (A) (A) (A) (A) (A)
                 (A) (A) (A) (A) (A) (A) (A) (A) (A) (A) (A) (A)
                 (A) (A) (A) (A) (A) (A) (A) (A) (A) (A) (A) (A)
                 (A) (A) (A) (A) (A) (A) (A) (A) (A) (A) (A) (A)
                 (A) (A) (A) (A) (A) (A) (A) (A) (A) (A) (A) (A)
                 (A) (A) (A) (A) (A) (A) (A) (A) (A) (A) (A) (A)
                 (A) (A) (A) (A) (A) (A) (A) (A) (A) (A) (A) (A)
                 (A) (A) (A) (A) (A) (A) (A) (A) (A) (A) (A) (A)
                 (A) (A) (A) (A) (A) (A) (A) (A) (A) (A) (A) (A)
                 (A) (A) (A) (A) (A) (A) (A) (A) (A) (A) (A) (A)
                 (A) (A) (A) (A) (A) (A) (A) (A) (A) (A) (A) (A)
                 (A) (A) (A) (A) (A) (A) (A) (A) (A) (A) (A) (A)
                 (A) (A)
 The electronic state is 1-A.
 Alpha  occ. eigenvalues --  -20.42193 -11.36187 -11.29731 -11.26975 -11.20166
 Alpha  occ. eigenvalues --   -1.25789  -1.13972  -0.97400  -0.88311  -0.76604
 Alpha  occ. eigenvalues --   -0.72280  -0.65176  -0.62395  -0.56904  -0.55282
 Alpha  occ. eigenvalues --   -0.51726  -0.50457  -0.47994  -0.33029  -0.31511
 Alpha virt. eigenvalues --    0.02007   0.02784   0.04427   0.04792   0.06450
 Alpha virt. eigenvalues --    0.07320   0.07917   0.08444   0.10832   0.13164
 Alpha virt. eigenvalues --    0.14206   0.15187   0.15659   0.16891   0.17255
 Alpha virt. eigenvalues --    0.17557   0.18383   0.19174   0.20198   0.20952
 Alpha virt. eigenvalues --    0.21358   0.21540   0.22323   0.22932   0.24332
 Alpha virt. eigenvalues --    0.27280   0.28690   0.30515   0.32095   0.34913
 Alpha virt. eigenvalues --    0.35953   0.37585   0.39321   0.41107   0.42926
 Alpha virt. eigenvalues --    0.43981   0.46057   0.47307   0.48590   0.48963
 Alpha virt. eigenvalues --    0.53375   0.54827   0.55431   0.57000   0.62371
 Alpha virt. eigenvalues --    0.64099   0.64324   0.66077   0.67431   0.68211
 Alpha virt. eigenvalues --    0.71153   0.72263   0.74036   0.74509   0.75391
 Alpha virt. eigenvalues --    0.76066   0.77403   0.78949   0.81719   0.83648
 Alpha virt. eigenvalues --    0.84534   0.86307   0.87750   0.88596   0.90202
 Alpha virt. eigenvalues --    0.94252   0.97127   1.00082   1.04108   1.07250
 Alpha virt. eigenvalues --    1.09359   1.11578   1.13313   1.15445   1.19117
 Alpha virt. eigenvalues --    1.21709   1.24315   1.27196   1.28345   1.29090
 Alpha virt. eigenvalues --    1.32617   1.34446   1.37150   1.40587   1.41971
 Alpha virt. eigenvalues --    1.43064   1.44289   1.46656   1.47477   1.49244
 Alpha virt. eigenvalues --    1.51247   1.53786   1.54919   1.56016   1.57173
 Alpha virt. eigenvalues --    1.57605   1.60084   1.62722   1.64397   1.67451
 Alpha virt. eigenvalues --    1.68865   1.70599   1.71857   1.75335   1.77729
 Alpha virt. eigenvalues --    1.79068   1.80388   1.83569   1.85043   1.86955
 Alpha virt. eigenvalues --    1.93255   2.04822   2.19114   2.19666   2.25376
 Alpha virt. eigenvalues --    2.47043   2.52358   2.72898   2.75298   2.79589
 Alpha virt. eigenvalues --    2.81787   2.87282   2.88884   2.91370   2.96250
 Alpha virt. eigenvalues --    3.00394   3.04544   3.06795   3.08245   3.09626
 Alpha virt. eigenvalues --    3.14373   3.17523   3.19674   3.20568   3.26624
 Alpha virt. eigenvalues --    3.28633   3.29140   3.34494   3.37936   3.39724
 Alpha virt. eigenvalues --    3.40609   3.43470   3.47785   3.49064   3.52377
 Alpha virt. eigenvalues --    3.53423   3.57825   3.59881   3.60860   3.64997
 Alpha virt. eigenvalues --    3.66885   3.71654   3.72841   3.73752   3.76606
 Alpha virt. eigenvalues --    3.79825   3.80466   3.84678   3.87242   3.89363
 Alpha virt. eigenvalues --    3.93871   3.95900   3.99289   4.02879   4.06892
 Alpha virt. eigenvalues --    4.07549   4.10203   4.11699   4.19778   4.24996
 Alpha virt. eigenvalues --    4.27714   4.30212   4.35162   4.37019   4.38995
 Alpha virt. eigenvalues --    4.40890   4.43237   4.45717   4.47854   4.51293
 Alpha virt. eigenvalues --    4.52737   4.52921   4.57014   4.60758   4.61346
 Alpha virt. eigenvalues --    4.63904   4.67245   4.70404   4.71948   4.76073
 Alpha virt. eigenvalues --    4.82648   4.85148   4.86687   4.92686   4.95373
 Alpha virt. eigenvalues --    4.98607   5.03319   5.04456   5.09775   5.24091
 Alpha virt. eigenvalues --    5.41804   5.54845   5.61632   5.67015   5.69270
 Alpha virt. eigenvalues --    5.70450   5.78778   5.83484   5.89852   5.92860
 Alpha virt. eigenvalues --    5.96496   6.02868   6.05186   6.06844   6.12855
 Alpha virt. eigenvalues --    6.17772   6.25152   6.64492   6.71700   7.45423
 Alpha virt. eigenvalues --    7.56321   7.63554   8.01365   8.05931   8.32175
 Alpha virt. eigenvalues --   25.17363  25.49007  25.62029  25.70054  51.93007
     Molecular Orbital Coefficients:
                           1         2         3         4         5
                           O         O         O         O         O
     Eigenvalues --   -20.42193 -11.36187 -11.29731 -11.26975 -11.20166
   1 1   C  1S          0.00000   0.56342  -0.00523   0.00008   0.00001
   2        2S         -0.00000   0.46656  -0.00441   0.00006   0.00001
   3        2PX        -0.00000  -0.00039   0.00015  -0.00001  -0.00000
   4        2PY         0.00000   0.00029  -0.00012   0.00001  -0.00001
   5        2PZ         0.00001   0.00062   0.00009  -0.00001   0.00000
   6        3S          0.00002   0.00410   0.00040   0.00001  -0.00006
   7        3PX         0.00000   0.00038   0.00014   0.00003  -0.00002
   8        3PY        -0.00003  -0.00030  -0.00014  -0.00002   0.00008
   9        3PZ        -0.00001  -0.00019   0.00016   0.00001  -0.00005
  10        4S         -0.00002   0.00375   0.00019  -0.00039  -0.00014
  11        4PX        -0.00018   0.00043   0.00017  -0.00017   0.00003
  12        4PY        -0.00006  -0.00047   0.00017   0.00003   0.00010
  13        4PZ        -0.00003   0.00038   0.00005  -0.00000  -0.00002
  14        5S         -0.00033  -0.00326  -0.00109  -0.00075  -0.00035
  15        5PX        -0.00034  -0.00055  -0.00019  -0.00009  -0.00004
  16        5PY        -0.00031   0.00036   0.00016   0.00010   0.00012
  17        5PZ        -0.00006  -0.00044  -0.00011  -0.00009  -0.00005
  18        6D 0       -0.00000  -0.00023   0.00000  -0.00001  -0.00000
  19        6D+1       -0.00001   0.00029   0.00005   0.00000  -0.00000
  20        6D-1        0.00000  -0.00020  -0.00005  -0.00000   0.00000
  21        6D+2        0.00001  -0.00000   0.00001   0.00001   0.00000
  22        6D-2       -0.00001   0.00000  -0.00008  -0.00001   0.00001
  23        7D 0       -0.00000  -0.00058   0.00007   0.00004  -0.00002
  24        7D+1        0.00001   0.00037  -0.00014  -0.00001  -0.00005
  25        7D-1        0.00003  -0.00032   0.00000  -0.00003  -0.00001
  26        7D+2        0.00000  -0.00000  -0.00013  -0.00007  -0.00008
  27        7D-2        0.00002   0.00007   0.00002  -0.00006   0.00001
  28        8F 0       -0.00000   0.00006   0.00004  -0.00000  -0.00000
  29        8F+1       -0.00001   0.00003  -0.00002   0.00001  -0.00000
  30        8F-1        0.00000  -0.00006  -0.00000  -0.00000  -0.00000
  31        8F+2       -0.00000   0.00002  -0.00004  -0.00000  -0.00000
  32        8F-2        0.00001  -0.00026   0.00007  -0.00001  -0.00000
  33        8F+3        0.00000  -0.00021   0.00001  -0.00001  -0.00001
  34        8F-3        0.00000  -0.00034   0.00007   0.00000  -0.00000
  35 2   C  1S          0.00000   0.00506   0.56334  -0.00468   0.00004
  36        2S          0.00000   0.00415   0.46650  -0.00393   0.00004
  37        2PX         0.00000  -0.00016  -0.00113   0.00006  -0.00000
  38        2PY        -0.00001   0.00012   0.00045   0.00002   0.00000
  39        2PZ        -0.00001  -0.00015  -0.00017   0.00001  -0.00000
  40        3S         -0.00003   0.00036   0.00440   0.00015  -0.00005
  41        3PX        -0.00005   0.00017   0.00062   0.00049  -0.00002
  42        3PY         0.00005  -0.00013  -0.00039   0.00004  -0.00001
  43        3PZ         0.00001   0.00014   0.00016   0.00004   0.00000
  44        4S         -0.00006  -0.00286   0.00167   0.00139   0.00032
  45        4PX         0.00002   0.00078   0.00026   0.00058  -0.00001
  46        4PY        -0.00000  -0.00097  -0.00074   0.00020   0.00018
  47        4PZ         0.00016   0.00087   0.00015  -0.00012  -0.00009
  48        5S          0.00195   0.00286   0.00034  -0.00092   0.00031
  49        5PX         0.00065  -0.00075  -0.00053  -0.00070  -0.00018
  50        5PY         0.00060   0.00064   0.00046   0.00005   0.00015
  51        5PZ        -0.00014  -0.00062  -0.00020  -0.00013  -0.00013
  52        6D 0        0.00000  -0.00000  -0.00022  -0.00004   0.00000
  53        6D+1        0.00001   0.00003   0.00013  -0.00001  -0.00000
  54        6D-1       -0.00001  -0.00003  -0.00015   0.00001   0.00000
  55        6D+2       -0.00000   0.00001   0.00001   0.00009   0.00000
  56        6D-2        0.00001  -0.00003  -0.00009   0.00003   0.00001
  57        7D 0       -0.00002   0.00008  -0.00039  -0.00015  -0.00005
  58        7D+1       -0.00003  -0.00036  -0.00006  -0.00004   0.00003
  59        7D-1        0.00007   0.00031  -0.00031  -0.00002  -0.00003
  60        7D+2        0.00004  -0.00006  -0.00008   0.00009  -0.00003
  61        7D-2       -0.00010   0.00020   0.00045   0.00003  -0.00018
  62        8F 0        0.00001  -0.00002  -0.00006   0.00000  -0.00000
  63        8F+1       -0.00000   0.00003  -0.00012  -0.00002  -0.00000
  64        8F-1       -0.00001  -0.00002   0.00013   0.00000   0.00001
  65        8F+2       -0.00000  -0.00000  -0.00011   0.00000   0.00000
  66        8F-2       -0.00001  -0.00007   0.00011  -0.00001   0.00001
  67        8F+3        0.00001  -0.00003   0.00033   0.00001   0.00001
  68        8F-3       -0.00000  -0.00003   0.00021  -0.00001  -0.00001
  69 3   O  1S          0.55150   0.00000  -0.00000  -0.00010   0.00000
  70        2S          0.47168  -0.00000   0.00000  -0.00016   0.00000
  71        2PX        -0.00023   0.00000  -0.00001  -0.00001   0.00000
  72        2PY         0.00118  -0.00000   0.00001   0.00020  -0.00000
  73        2PZ         0.00105  -0.00000   0.00000   0.00017  -0.00000
  74        3S          0.00560   0.00002  -0.00006   0.00039   0.00000
  75        3PX         0.00008   0.00001   0.00000  -0.00002  -0.00001
  76        3PY        -0.00056   0.00000  -0.00003   0.00009  -0.00004
  77        3PZ        -0.00051   0.00000  -0.00001   0.00009   0.00001
  78        4S         -0.00255  -0.00005   0.00005  -0.00148  -0.00008
  79        4PX         0.00014  -0.00001  -0.00012   0.00010  -0.00003
  80        4PY        -0.00055  -0.00003   0.00001  -0.00067  -0.00007
  81        4PZ        -0.00041   0.00002   0.00001  -0.00056  -0.00001
  82        5S          0.00067   0.00020   0.00010  -0.00083  -0.00008
  83        5PX        -0.00003  -0.00000   0.00004   0.00004   0.00002
  84        5PY        -0.00005   0.00009   0.00005  -0.00003   0.00004
  85        5PZ        -0.00006   0.00003   0.00002  -0.00003  -0.00007
  86        6D 0        0.00001  -0.00000   0.00000   0.00002  -0.00000
  87        6D+1       -0.00000  -0.00000   0.00000  -0.00001   0.00000
  88        6D-1        0.00002  -0.00000  -0.00000   0.00010   0.00000
  89        6D+2       -0.00003  -0.00000  -0.00000  -0.00006  -0.00000
  90        6D-2       -0.00001   0.00000   0.00001  -0.00001   0.00000
  91        7D 0       -0.00004   0.00001  -0.00001  -0.00003   0.00004
  92        7D+1        0.00007   0.00001  -0.00002  -0.00001  -0.00002
  93        7D-1       -0.00033   0.00001   0.00001  -0.00018  -0.00002
  94        7D+2        0.00015   0.00001   0.00005   0.00012   0.00003
  95        7D-2        0.00006  -0.00001  -0.00003   0.00002  -0.00001
  96        8F 0        0.00001  -0.00000  -0.00001   0.00001   0.00000
  97        8F+1        0.00000  -0.00000   0.00000  -0.00001  -0.00000
  98        8F-1       -0.00001   0.00000   0.00000  -0.00001   0.00000
  99        8F+2        0.00001   0.00000   0.00000   0.00002   0.00000
 100        8F-2        0.00001   0.00000  -0.00000  -0.00001  -0.00000
 101        8F+3       -0.00000   0.00000  -0.00000   0.00001   0.00000
 102        8F-3        0.00001   0.00000   0.00001   0.00001   0.00000
 103 4   C  1S          0.00001  -0.00003   0.00460   0.56355  -0.00253
 104        2S         -0.00008  -0.00002   0.00380   0.46649  -0.00213
 105        2PX        -0.00000   0.00000  -0.00019  -0.00086   0.00006
 106        2PY         0.00001  -0.00000   0.00000   0.00014   0.00018
 107        2PZ         0.00002  -0.00001  -0.00000   0.00005  -0.00007
 108        3S          0.00021  -0.00004   0.00026   0.00384   0.00037
 109        3PX         0.00012  -0.00001   0.00024   0.00084  -0.00003
 110        3PY        -0.00060  -0.00001  -0.00003  -0.00048  -0.00013
 111        3PZ        -0.00055   0.00005   0.00006  -0.00018   0.00007
 112        4S          0.00158   0.00063  -0.00081   0.00142  -0.00128
 113        4PX        -0.00015  -0.00008   0.00088   0.00081  -0.00010
 114        4PY        -0.00061   0.00038   0.00022  -0.00045  -0.00088
 115        4PZ        -0.00117  -0.00010   0.00020  -0.00023   0.00040
 116        5S         -0.00397  -0.00075   0.00051   0.00182   0.00034
 117        5PX         0.00050  -0.00007  -0.00050  -0.00072   0.00000
 118        5PY        -0.00030  -0.00037  -0.00022  -0.00015  -0.00001
 119        5PZ         0.00050   0.00023   0.00010  -0.00011   0.00014
 120        6D 0        0.00003  -0.00001  -0.00003   0.00007  -0.00003
 121        6D+1       -0.00002   0.00001  -0.00000   0.00005  -0.00001
 122        6D-1        0.00013   0.00001   0.00000   0.00013  -0.00003
 123        6D+2       -0.00007   0.00000   0.00004  -0.00014  -0.00005
 124        6D-2       -0.00002   0.00000   0.00001   0.00003   0.00003
 125        7D 0        0.00001   0.00004   0.00034   0.00050   0.00027
 126        7D+1       -0.00012  -0.00009  -0.00001   0.00008   0.00010
 127        7D-1        0.00045  -0.00008  -0.00002   0.00026   0.00018
 128        7D+2       -0.00025  -0.00000  -0.00037  -0.00057   0.00026
 129        7D-2       -0.00011   0.00003  -0.00009  -0.00009  -0.00028
 130        8F 0        0.00002  -0.00000   0.00001   0.00024  -0.00003
 131        8F+1        0.00000  -0.00000  -0.00005   0.00016   0.00003
 132        8F-1       -0.00007  -0.00000  -0.00002  -0.00027   0.00001
 133        8F+2        0.00009   0.00001   0.00002   0.00028  -0.00004
 134        8F-2        0.00002   0.00000   0.00002   0.00000   0.00004
 135        8F+3       -0.00002   0.00000   0.00008  -0.00016   0.00005
 136        8F-3        0.00004   0.00000   0.00001   0.00002   0.00005
 137 5   C  1S          0.00000  -0.00001  -0.00002   0.00243   0.56332
 138        2S         -0.00000  -0.00000  -0.00001   0.00197   0.46645
 139        2PX        -0.00000   0.00000  -0.00001  -0.00005  -0.00003
 140        2PY         0.00001  -0.00000   0.00000  -0.00013   0.00029
 141        2PZ         0.00001   0.00000  -0.00000   0.00004   0.00005
 142        3S          0.00002   0.00000  -0.00001   0.00028   0.00479
 143        3PX         0.00003   0.00001   0.00005   0.00003   0.00010
 144        3PY        -0.00001   0.00002  -0.00000  -0.00007  -0.00019
 145        3PZ        -0.00004  -0.00001   0.00000   0.00000  -0.00012
 146        4S         -0.00009  -0.00060  -0.00025  -0.00030   0.00331
 147        4PX         0.00012   0.00001  -0.00003   0.00026  -0.00001
 148        4PY         0.00011   0.00023   0.00011   0.00023  -0.00023
 149        4PZ         0.00021   0.00000  -0.00007  -0.00007  -0.00003
 150        5S          0.00180   0.00092   0.00025   0.00044   0.00010
 151        5PX        -0.00021  -0.00023  -0.00008  -0.00011  -0.00013
 152        5PY        -0.00047  -0.00020  -0.00009  -0.00006  -0.00000
 153        5PZ        -0.00003   0.00002   0.00004   0.00008   0.00005
 154        6D 0        0.00000  -0.00000   0.00000  -0.00003   0.00001
 155        6D+1       -0.00000   0.00000  -0.00000  -0.00001   0.00001
 156        6D-1        0.00001   0.00000   0.00000  -0.00003   0.00001
 157        6D+2       -0.00000  -0.00000  -0.00000  -0.00005   0.00002
 158        6D-2        0.00000  -0.00000   0.00000   0.00004  -0.00001
 159        7D 0       -0.00002   0.00002  -0.00006  -0.00002  -0.00000
 160        7D+1        0.00005   0.00000   0.00001   0.00001   0.00003
 161        7D-1       -0.00006  -0.00003  -0.00005   0.00000  -0.00009
 162        7D+2        0.00003   0.00006   0.00003   0.00017   0.00003
 163        7D-2       -0.00002   0.00000  -0.00008  -0.00007   0.00000
 164        8F 0       -0.00001  -0.00000  -0.00001   0.00001  -0.00023
 165        8F+1        0.00001   0.00000  -0.00001  -0.00002  -0.00028
 166        8F-1       -0.00000  -0.00001   0.00000  -0.00001   0.00023
 167        8F+2       -0.00001  -0.00000  -0.00001   0.00002  -0.00021
 168        8F-2        0.00001   0.00001  -0.00000   0.00001   0.00001
 169        8F+3        0.00001  -0.00000  -0.00001  -0.00000   0.00032
 170        8F-3        0.00000  -0.00000   0.00000  -0.00003   0.00006
 171 6   H  1S         -0.00001   0.00005   0.00023   0.00001  -0.00000
 172        2S         -0.00007   0.00026   0.00016  -0.00009  -0.00007
 173        3S         -0.00005  -0.00002  -0.00017  -0.00003  -0.00008
 174        4S         -0.00016   0.00004  -0.00026   0.00000  -0.00007
 175        5PX        -0.00000  -0.00003  -0.00001   0.00001   0.00000
 176        5PY         0.00000   0.00000  -0.00002  -0.00000   0.00000
 177        5PZ         0.00000  -0.00005  -0.00003   0.00000   0.00000
 178        6PX         0.00001  -0.00010   0.00004  -0.00005  -0.00000
 179        6PY         0.00004   0.00007   0.00003  -0.00001  -0.00002
 180        6PZ         0.00002  -0.00009   0.00008   0.00001   0.00003
 181 7   H  1S          0.00000   0.00030   0.00003   0.00000  -0.00000
 182        2S         -0.00005  -0.00090   0.00011   0.00012   0.00009
 183        3S         -0.00019  -0.00013   0.00003   0.00001   0.00004
 184        4S         -0.00026  -0.00004  -0.00005  -0.00005  -0.00001
 185        5PX        -0.00000  -0.00001   0.00002  -0.00000  -0.00000
 186        5PY         0.00001   0.00000  -0.00001   0.00000  -0.00000
 187        5PZ         0.00000   0.00001   0.00001   0.00000   0.00000
 188        6PX        -0.00002  -0.00031  -0.00003   0.00005   0.00002
 189        6PY        -0.00001  -0.00009   0.00007  -0.00000   0.00002
 190        6PZ        -0.00000  -0.00014  -0.00004   0.00002   0.00000
 191 8   H  1S         -0.00001   0.00028   0.00002  -0.00001   0.00001
 192        2S          0.00009  -0.00082  -0.00017   0.00005  -0.00016
 193        3S          0.00011  -0.00003  -0.00015   0.00002  -0.00012
 194        4S          0.00023   0.00004   0.00003   0.00005  -0.00010
 195        5PX        -0.00001  -0.00001  -0.00001  -0.00001   0.00001
 196        5PY         0.00000   0.00001  -0.00001   0.00000   0.00001
 197        5PZ        -0.00000   0.00000  -0.00000   0.00000   0.00000
 198        6PX         0.00003   0.00005  -0.00001   0.00004  -0.00003
 199        6PY        -0.00004   0.00032   0.00006  -0.00002   0.00006
 200        6PZ         0.00001  -0.00005  -0.00002   0.00001  -0.00004
 201 9   H  1S          0.00002   0.00001   0.00026   0.00000  -0.00000
 202        2S         -0.00002   0.00001  -0.00125  -0.00014   0.00003
 203        3S          0.00007  -0.00018  -0.00032  -0.00000   0.00003
 204        4S          0.00045   0.00009   0.00024  -0.00008   0.00011
 205        5PX         0.00001   0.00001  -0.00002   0.00000  -0.00000
 206        5PY         0.00000   0.00000  -0.00004   0.00001  -0.00000
 207        5PZ         0.00001   0.00000   0.00001   0.00000   0.00000
 208        6PX        -0.00006  -0.00001  -0.00010  -0.00007  -0.00006
 209        6PY         0.00002  -0.00002  -0.00044  -0.00002   0.00002
 210        6PZ        -0.00001   0.00000   0.00012   0.00000  -0.00000
 211 10  H  1S         -0.00001   0.00000  -0.00001   0.00025  -0.00001
 212        2S          0.00028  -0.00008  -0.00030  -0.00075  -0.00025
 213        3S          0.00027  -0.00003  -0.00015  -0.00032  -0.00021
 214        4S         -0.00013   0.00002   0.00007   0.00014  -0.00014
 215        5PX        -0.00001  -0.00000   0.00002   0.00000  -0.00000
 216        5PY        -0.00001   0.00000  -0.00000  -0.00001  -0.00001
 217        5PZ        -0.00001   0.00001   0.00000   0.00001   0.00001
 218        6PX        -0.00002   0.00007   0.00004   0.00013   0.00003
 219        6PY         0.00006  -0.00001  -0.00002  -0.00004  -0.00002
 220        6PZ        -0.00005  -0.00000   0.00008   0.00034   0.00009
 221 11  H  1S         -0.00000  -0.00001  -0.00000  -0.00000   0.00028
 222        2S          0.00001   0.00004   0.00004  -0.00000  -0.00088
 223        3S         -0.00002  -0.00002  -0.00003  -0.00011  -0.00030
 224        4S         -0.00004  -0.00005  -0.00001  -0.00011   0.00006
 225        5PX        -0.00001  -0.00000   0.00000   0.00000  -0.00001
 226        5PY        -0.00001   0.00000   0.00000  -0.00000   0.00002
 227        5PZ        -0.00000  -0.00000   0.00000  -0.00000  -0.00005
 228        6PX         0.00003   0.00002   0.00001  -0.00001  -0.00015
 229        6PY         0.00004  -0.00001  -0.00005   0.00002   0.00007
 230        6PZ        -0.00003   0.00000  -0.00000  -0.00001  -0.00038
 231 12  H  1S          0.00001  -0.00000  -0.00000   0.00001   0.00028
 232        2S          0.00004   0.00007   0.00006   0.00007  -0.00057
 233        3S         -0.00007  -0.00007  -0.00002  -0.00013  -0.00032
 234        4S          0.00001  -0.00001  -0.00006  -0.00014  -0.00006
 235        5PX         0.00001   0.00000   0.00000   0.00000  -0.00001
 236        5PY        -0.00001  -0.00000   0.00000  -0.00001   0.00003
 237        5PZ        -0.00000  -0.00000  -0.00000  -0.00000   0.00002
 238        6PX        -0.00002   0.00001   0.00002   0.00001  -0.00008
 239        6PY        -0.00002  -0.00001  -0.00004   0.00002   0.00020
 240        6PZ        -0.00000  -0.00002   0.00002  -0.00000   0.00021
 241 13  H  1S         -0.00000  -0.00001  -0.00001  -0.00001   0.00027
 242        2S         -0.00006   0.00005  -0.00001  -0.00022  -0.00088
 243        3S         -0.00012   0.00009   0.00006  -0.00016  -0.00025
 244        4S          0.00003   0.00011   0.00019   0.00018   0.00014
 245        5PX         0.00000   0.00000   0.00001   0.00001   0.00005
 246        5PY        -0.00000   0.00000   0.00000   0.00000   0.00001
 247        5PZ         0.00000  -0.00000  -0.00000  -0.00000  -0.00000
 248        6PX         0.00003  -0.00002  -0.00001   0.00005   0.00041
 249        6PY         0.00002  -0.00001   0.00003   0.00003  -0.00000
 250        6PZ        -0.00003  -0.00000  -0.00000  -0.00000  -0.00000
                           6         7         8         9        10
                           O         O         O         O         O
     Eigenvalues --    -1.25789  -1.13972  -0.97400  -0.88311  -0.76604
   1 1   C  1S         -0.01496  -0.08017   0.02046  -0.06092  -0.01429
   2        2S         -0.02450  -0.13261   0.03407  -0.10250  -0.02426
   3        2PX         0.00961   0.02823   0.00713  -0.05081  -0.02986
   4        2PY        -0.00592  -0.02089   0.00537   0.04780   0.07090
   5        2PZ         0.00588   0.02721  -0.00064  -0.04505  -0.04814
   6        3S          0.06071   0.33500  -0.08448   0.26813   0.06543
   7        3PX         0.01349   0.04336   0.01320  -0.07691  -0.04325
   8        3PY        -0.00794  -0.02986   0.00608   0.07133   0.10496
   9        3PZ         0.00912   0.04387   0.00016  -0.06508  -0.07240
  10        4S          0.02355   0.15084  -0.07255   0.22076   0.06503
  11        4PX         0.00647   0.01102  -0.00360  -0.02024  -0.02027
  12        4PY        -0.00067  -0.01027   0.00467   0.02749   0.05003
  13        4PZ         0.00546   0.01817  -0.00546  -0.01541  -0.03326
  14        5S          0.06320   0.06784   0.01149  -0.07578  -0.03673
  15        5PX         0.02899   0.00887   0.01043  -0.02032  -0.00144
  16        5PY         0.01610  -0.00443   0.00244  -0.00929  -0.00133
  17        5PZ         0.00385   0.00098   0.00302  -0.00585  -0.00209
  18        6D 0       -0.00059  -0.00219   0.00087  -0.00726  -0.00497
  19        6D+1        0.00164   0.00811  -0.00145   0.00158  -0.00174
  20        6D-1       -0.00116  -0.00578   0.00091  -0.00020   0.00165
  21        6D+2        0.00013   0.00009   0.00044  -0.00150  -0.00142
  22        6D-2       -0.00080  -0.00198  -0.00054   0.00786   0.00611
  23        7D 0        0.00123   0.00290   0.00291  -0.00839  -0.00421
  24        7D+1        0.00256   0.00953  -0.00134  -0.00021   0.00056
  25        7D-1       -0.00076  -0.00561   0.00304  -0.00044   0.00630
  26        7D+2        0.00210   0.00043   0.00188  -0.00296   0.00422
  27        7D-2       -0.00310  -0.00848  -0.00043   0.01001   0.00603
  28        8F 0        0.00044   0.00175  -0.00047   0.00113   0.00011
  29        8F+1        0.00052   0.00204  -0.00025  -0.00044  -0.00089
  30        8F-1       -0.00020  -0.00091   0.00013  -0.00001   0.00028
  31        8F+2        0.00022   0.00057   0.00018  -0.00020   0.00044
  32        8F-2       -0.00074  -0.00339   0.00100  -0.00092   0.00101
  33        8F+3       -0.00045  -0.00198   0.00097  -0.00203   0.00015
  34        8F-3       -0.00090  -0.00344   0.00122  -0.00277  -0.00070
  35 2   C  1S         -0.02984  -0.07071  -0.00120   0.06116   0.01650
  36        2S         -0.04897  -0.11683  -0.00219   0.10273   0.02770
  37        2PX         0.01179  -0.04338   0.02789  -0.02014   0.08406
  38        2PY         0.00316   0.03376   0.00505   0.02589   0.01416
  39        2PZ        -0.00528  -0.01317   0.00844  -0.03203   0.01024
  40        3S          0.12126   0.28542   0.00844  -0.26425  -0.06676
  41        3PX         0.01941  -0.06486   0.04311  -0.03382   0.13420
  42        3PY         0.00384   0.05456   0.00906   0.03502   0.02143
  43        3PZ        -0.00821  -0.02179   0.01388  -0.05240   0.01621
  44        4S          0.08800   0.16012   0.00917  -0.20630  -0.06395
  45        4PX         0.02223  -0.00922   0.00717  -0.00744   0.05672
  46        4PY        -0.00423   0.03237   0.00340  -0.00697  -0.00106
  47        4PZ        -0.00936  -0.01297   0.00498  -0.01680   0.01290
  48        5S         -0.12104  -0.07524   0.11690   0.03033   0.09597
  49        5PX        -0.03166   0.01717   0.02006  -0.00252   0.00462
  50        5PY        -0.04760  -0.03589   0.01472   0.02150   0.00783
  51        5PZ         0.01064   0.01709  -0.00360   0.00176  -0.01638
  52        6D 0       -0.00217  -0.00323  -0.00080   0.00441  -0.00002
  53        6D+1       -0.00051   0.00361  -0.00052   0.00195  -0.00005
  54        6D-1       -0.00027  -0.00333   0.00041   0.00024   0.00144
  55        6D+2        0.00164  -0.00081   0.00115   0.00109   0.00459
  56        6D-2       -0.00164  -0.00663   0.00276  -0.00265   0.00354
  57        7D 0       -0.00517  -0.00544  -0.00042   0.00661  -0.00010
  58        7D+1        0.00492   0.01149  -0.00159  -0.00059   0.00479
  59        7D-1       -0.00782  -0.00557   0.00206  -0.00184   0.00148
  60        7D+2        0.00575   0.00671   0.00100  -0.00528   0.00498
  61        7D-2        0.00443  -0.01546   0.01233  -0.00700   0.01122
  62        8F 0        0.00025   0.00001  -0.00015   0.00088  -0.00013
  63        8F+1       -0.00066  -0.00129  -0.00042   0.00205  -0.00098
  64        8F-1        0.00053   0.00100  -0.00013  -0.00130  -0.00024
  65        8F+2       -0.00064  -0.00147   0.00010   0.00155   0.00092
  66        8F-2        0.00073   0.00117  -0.00047  -0.00025  -0.00070
  67        8F+3        0.00140   0.00484  -0.00021  -0.00329  -0.00092
  68        8F-3        0.00104   0.00368  -0.00002  -0.00215  -0.00209
  69 3   O  1S         -0.09468   0.03517   0.03630  -0.02175   0.03205
  70        2S         -0.15754   0.05873   0.06087  -0.03656   0.05405
  71        2PX        -0.00928  -0.00283   0.00271   0.01658  -0.00408
  72        2PY         0.03455  -0.00828   0.00965  -0.00023   0.02359
  73        2PZ         0.03000  -0.00754   0.00019  -0.01188   0.03913
  74        3S          0.43520  -0.16398  -0.17202   0.10448  -0.15665
  75        3PX        -0.01426  -0.00488   0.00433   0.02618  -0.00606
  76        3PY         0.05590  -0.01405   0.01419   0.00091   0.03457
  77        3PZ         0.04864  -0.01336  -0.00158  -0.01735   0.05830
  78        4S          0.36879  -0.14753  -0.17263   0.11021  -0.18415
  79        4PX        -0.01266   0.00191   0.00692   0.01467  -0.00007
  80        4PY         0.04278  -0.01399   0.00074   0.00540   0.01480
  81        4PZ         0.03673  -0.01224  -0.00623  -0.00957   0.03900
  82        5S         -0.04492   0.00186  -0.00904   0.00921  -0.01095
  83        5PX         0.00565   0.00064   0.00116  -0.00599   0.00271
  84        5PY        -0.01531  -0.00131  -0.00733   0.00007  -0.00051
  85        5PZ        -0.01281  -0.00094  -0.00350   0.00550  -0.01049
  86        6D 0        0.00064  -0.00033  -0.00044  -0.00028   0.00104
  87        6D+1       -0.00082  -0.00007   0.00011   0.00082  -0.00039
  88        6D-1        0.00405  -0.00113  -0.00021  -0.00022   0.00187
  89        6D+2       -0.00217   0.00087  -0.00028  -0.00060  -0.00053
  90        6D-2       -0.00089  -0.00014   0.00020   0.00069  -0.00036
  91        7D 0        0.00173  -0.00091  -0.00155  -0.00105   0.00326
  92        7D+1       -0.00267   0.00001   0.00116   0.00258  -0.00143
  93        7D-1        0.01321  -0.00447  -0.00139   0.00028   0.00449
  94        7D+2       -0.00658   0.00197  -0.00028  -0.00184  -0.00082
  95        7D-2       -0.00309   0.00031   0.00026   0.00214  -0.00113
  96        8F 0       -0.00123   0.00030   0.00010  -0.00008   0.00011
  97        8F+1       -0.00028   0.00009   0.00008   0.00021  -0.00026
  98        8F-1        0.00206  -0.00077  -0.00073  -0.00003   0.00063
  99        8F+2       -0.00252   0.00092   0.00050  -0.00059  -0.00013
 100        8F-2       -0.00101   0.00002   0.00013   0.00063  -0.00041
 101        8F+3        0.00048  -0.00008  -0.00001  -0.00020   0.00023
 102        8F-3       -0.00099   0.00046   0.00007  -0.00044   0.00012
 103 4   C  1S         -0.05979   0.00328  -0.04079   0.01975  -0.06294
 104        2S         -0.09768   0.00528  -0.06783   0.03296  -0.10570
 105        2PX        -0.00004  -0.01989   0.00798   0.03936  -0.00535
 106        2PY        -0.04210   0.02129   0.06492   0.00645   0.00143
 107        2PZ        -0.03915   0.01684   0.01566  -0.02936   0.05851
 108        3S          0.24205  -0.01309   0.17361  -0.08265   0.27526
 109        3PX        -0.00634  -0.02991   0.01206   0.06412  -0.01289
 110        3PY        -0.05307   0.03045   0.09965   0.01282   0.00064
 111        3PZ        -0.05761   0.02217   0.01752  -0.04272   0.08430
 112        4S          0.04170   0.00066   0.13250  -0.06752   0.24887
 113        4PX         0.00771  -0.00743  -0.00645   0.03025  -0.02174
 114        4PY         0.00318   0.00273   0.02969   0.00684   0.02117
 115        4PZ         0.00082  -0.00474  -0.00921  -0.00707   0.02299
 116        5S          0.12707  -0.05318  -0.20862   0.02594  -0.18529
 117        5PX        -0.01792   0.00677   0.02591  -0.00767   0.01893
 118        5PY        -0.00029  -0.00252  -0.02969  -0.00078  -0.03553
 119        5PZ        -0.00010   0.00728   0.02023  -0.01512   0.04170
 120        6D 0        0.00171  -0.00222  -0.00181   0.00118   0.00331
 121        6D+1       -0.00124   0.00053   0.00078  -0.00092   0.00383
 122        6D-1        0.01080  -0.00449  -0.00747   0.00153  -0.00291
 123        6D+2       -0.00596   0.00484  -0.00194  -0.00615   0.00226
 124        6D-2       -0.00104   0.00076   0.00356  -0.00106   0.00007
 125        7D 0       -0.00286  -0.00532  -0.01032   0.00512  -0.00059
 126        7D+1        0.00045   0.00195  -0.00327   0.00246   0.00091
 127        7D-1        0.02202  -0.00542  -0.01213   0.00200  -0.00192
 128        7D+2       -0.00546   0.00500  -0.00471  -0.01272   0.00440
 129        7D-2        0.00569  -0.00552   0.00910  -0.00276   0.00299
 130        8F 0        0.00313  -0.00043   0.00109  -0.00045   0.00257
 131        8F+1        0.00185   0.00025   0.00114  -0.00122   0.00257
 132        8F-1       -0.00379   0.00059  -0.00104   0.00004  -0.00178
 133        8F+2        0.00439  -0.00090   0.00111  -0.00074   0.00231
 134        8F-2        0.00019  -0.00025  -0.00030   0.00050  -0.00013
 135        8F+3       -0.00226   0.00005  -0.00266   0.00131  -0.00333
 136        8F-3        0.00055  -0.00013  -0.00134   0.00061  -0.00066
 137 5   C  1S         -0.01412  -0.00319  -0.08980  -0.02810   0.03524
 138        2S         -0.02312  -0.00530  -0.14898  -0.04682   0.05908
 139        2PX        -0.00384  -0.00352  -0.00475   0.00745  -0.02160
 140        2PY        -0.01193   0.00071  -0.01020   0.01069  -0.05233
 141        2PZ         0.00126   0.00122   0.00739  -0.00849   0.02992
 142        3S          0.05765   0.01408   0.36863   0.11572  -0.14672
 143        3PX        -0.00721  -0.00695  -0.00958   0.01164  -0.03299
 144        3PY        -0.02397   0.00103  -0.02172   0.01304  -0.07809
 145        3PZ         0.00214   0.00167   0.01251  -0.01198   0.04469
 146        4S          0.02125   0.00667   0.21056   0.07774  -0.13821
 147        4PX        -0.00303   0.00582  -0.01845  -0.00091  -0.00581
 148        4PY        -0.01341  -0.00205  -0.00841   0.00498  -0.03034
 149        4PZ        -0.00698   0.00003   0.01089  -0.00278   0.01672
 150        5S         -0.00823   0.04729   0.09102   0.00058   0.11318
 151        5PX         0.00014  -0.01335   0.00308  -0.01021  -0.00590
 152        5PY         0.00393  -0.01023  -0.02404   0.00542  -0.03100
 153        5PZ        -0.00229   0.00192  -0.00399   0.00245  -0.00610
 154        6D 0       -0.00085  -0.00000  -0.00033   0.00073  -0.00256
 155        6D+1       -0.00028  -0.00019  -0.00040   0.00089  -0.00192
 156        6D-1       -0.00038  -0.00024  -0.00084   0.00100  -0.00394
 157        6D+2       -0.00165   0.00063  -0.00103   0.00066  -0.00443
 158        6D-2        0.00085   0.00046   0.00066  -0.00143   0.00350
 159        7D 0       -0.00723   0.00259  -0.00116  -0.00321  -0.00177
 160        7D+1        0.00161   0.00026  -0.00179   0.00164  -0.00297
 161        7D-1        0.00052  -0.00062  -0.00661   0.00127  -0.00710
 162        7D+2       -0.00111  -0.00307  -0.00120   0.00095  -0.00323
 163        7D-2        0.00614  -0.00166   0.00495  -0.00222   0.00490
 164        8F 0        0.00009  -0.00019  -0.00300  -0.00069   0.00077
 165        8F+1       -0.00019   0.00000  -0.00280  -0.00081   0.00137
 166        8F-1        0.00036   0.00011   0.00287   0.00111  -0.00141
 167        8F+2        0.00021  -0.00021  -0.00279  -0.00078   0.00066
 168        8F-2       -0.00002   0.00001   0.00044  -0.00022   0.00048
 169        8F+3        0.00065  -0.00013   0.00417   0.00093  -0.00121
 170        8F-3       -0.00036   0.00035   0.00076   0.00040  -0.00045
 171 6   H  1S          0.01625   0.07193  -0.00431  -0.03488  -0.02754
 172        2S          0.02741   0.09071  -0.00272  -0.04900  -0.03482
 173        3S          0.00339   0.00991  -0.01040  -0.00612  -0.00570
 174        4S          0.01588   0.02277  -0.01092  -0.00760   0.00359
 175        5PX         0.00087   0.00089   0.00087  -0.00275   0.00070
 176        5PY        -0.00089  -0.00277   0.00016   0.00320   0.00233
 177        5PZ        -0.00164  -0.00686   0.00077   0.00050   0.00221
 178        6PX         0.00112   0.00049   0.00165  -0.00534   0.00340
 179        6PY        -0.00467  -0.00914   0.00100   0.00855   0.00402
 180        6PZ        -0.00382  -0.01354   0.00132   0.00321   0.00399
 181 7   H  1S          0.00599   0.04535  -0.02212   0.08561   0.02901
 182        2S          0.00964   0.06747  -0.02907   0.12113   0.04025
 183        3S          0.00544   0.00092  -0.00596   0.01790   0.00940
 184        4S          0.01602   0.00265   0.00941  -0.00264   0.00114
 185        5PX         0.00045   0.00378  -0.00160   0.00652   0.00207
 186        5PY         0.00001   0.00118  -0.00052   0.00373   0.00262
 187        5PZ         0.00015   0.00167  -0.00071   0.00197  -0.00003
 188        6PX         0.00210   0.01177  -0.00295   0.01169   0.00263
 189        6PY        -0.00007   0.00311  -0.00195   0.00976   0.00341
 190        6PZ         0.00143   0.00563  -0.00047   0.00237   0.00030
 191 8   H  1S          0.00791   0.04896  -0.01229   0.08801   0.06618
 192        2S          0.01169   0.06768  -0.00901   0.11900   0.10499
 193        3S         -0.00762   0.00361  -0.00490   0.02065   0.01988
 194        4S         -0.02255  -0.00630  -0.01109   0.02451   0.00704
 195        5PX         0.00024  -0.00046   0.00057  -0.00276  -0.00230
 196        5PY        -0.00077  -0.00438   0.00096  -0.00726  -0.00552
 197        5PZ         0.00036   0.00184  -0.00024   0.00121   0.00068
 198        6PX        -0.00101  -0.00154   0.00165  -0.00713  -0.00523
 199        6PY        -0.00135  -0.01125   0.00053  -0.01352  -0.01158
 200        6PZ         0.00016   0.00237  -0.00003   0.00206   0.00149
 201 9   H  1S          0.01583   0.03714  -0.00480  -0.07043  -0.04019
 202        2S          0.01130   0.05700  -0.01044  -0.10083  -0.06294
 203        3S         -0.00759   0.00376  -0.00402  -0.01055  -0.01506
 204        4S         -0.03272  -0.01283  -0.00302   0.00493  -0.00705
 205        5PX         0.00090   0.00013   0.00028  -0.00232   0.00086
 206        5PY         0.00122   0.00351  -0.00029  -0.00589  -0.00334
 207        5PZ        -0.00068  -0.00086   0.00036   0.00114   0.00140
 208        6PX         0.00047  -0.00138   0.00251  -0.00326   0.00276
 209        6PY        -0.00022   0.01058  -0.00225  -0.01278  -0.00742
 210        6PZ        -0.00030  -0.00211   0.00165   0.00007   0.00238
 211 10  H  1S          0.02038   0.00043   0.03356  -0.02447   0.09141
 212        2S          0.03846   0.00206   0.04912  -0.03858   0.13519
 213        3S         -0.00363   0.00564   0.01433  -0.00910   0.03711
 214        4S         -0.00860  -0.00900   0.00254   0.00603  -0.00929
 215        5PX        -0.00063  -0.00038  -0.00101   0.00178  -0.00333
 216        5PY         0.00015   0.00016   0.00178  -0.00018   0.00172
 217        5PZ        -0.00161   0.00003  -0.00274   0.00162  -0.00691
 218        6PX        -0.00371  -0.00152  -0.00244   0.00299  -0.00574
 219        6PY        -0.00541   0.00229   0.00461  -0.00210   0.00322
 220        6PZ        -0.00903   0.00077  -0.00652   0.00419  -0.01244
 221 11  H  1S          0.00743   0.00302   0.06461   0.02940  -0.05476
 222        2S          0.01482   0.00166   0.08407   0.04444  -0.07759
 223        3S         -0.00187  -0.00163   0.00435   0.00173  -0.01608
 224        4S         -0.00400  -0.00154   0.00213  -0.00557  -0.00594
 225        5PX         0.00026  -0.00022   0.00155   0.00088  -0.00227
 226        5PY        -0.00028  -0.00028  -0.00164  -0.00041   0.00003
 227        5PZ         0.00064   0.00028   0.00539   0.00242  -0.00415
 228        6PX         0.00191  -0.00098   0.00375   0.00244  -0.00377
 229        6PY        -0.00169   0.00163  -0.00059  -0.00123   0.00018
 230        6PZ         0.00372  -0.00048   0.00996   0.00507  -0.00833
 231 12  H  1S          0.00574   0.00334   0.06901   0.02374  -0.04146
 232        2S          0.01342   0.00667   0.09463   0.03300  -0.05538
 233        3S          0.00125  -0.00015   0.00756  -0.00030  -0.00716
 234        4S          0.00362  -0.00310   0.01666  -0.00920   0.00951
 235        5PX         0.00001  -0.00009   0.00139   0.00084  -0.00155
 236        5PY        -0.00090  -0.00030  -0.00468  -0.00122   0.00140
 237        5PZ        -0.00041  -0.00019  -0.00363  -0.00157   0.00320
 238        6PX         0.00064  -0.00085   0.00479   0.00124  -0.00218
 239        6PY        -0.00158  -0.00071  -0.00919  -0.00312   0.00244
 240        6PZ        -0.00095  -0.00046  -0.00910  -0.00256   0.00395
 241 13  H  1S          0.00613   0.00082   0.06476   0.02783  -0.04904
 242        2S          0.00749   0.00185   0.09181   0.03790  -0.06982
 243        3S          0.00050  -0.00643   0.00792   0.00712  -0.01622
 244        4S         -0.00131   0.00793  -0.01489   0.01212  -0.00763
 245        5PX        -0.00054  -0.00032  -0.00590  -0.00240   0.00416
 246        5PY        -0.00004  -0.00011  -0.00051   0.00013  -0.00107
 247        5PZ        -0.00009   0.00003   0.00048  -0.00001   0.00049
 248        6PX        -0.00195  -0.00037  -0.01267  -0.00528   0.00767
 249        6PY        -0.00212   0.00163   0.00033   0.00071  -0.00278
 250        6PZ         0.00012   0.00005   0.00078  -0.00055   0.00108
                          11        12        13        14        15
                           O         O         O         O         O
     Eigenvalues --    -0.72280  -0.65176  -0.62395  -0.56904  -0.55282
   1 1   C  1S          0.00546   0.00437  -0.00755   0.00166   0.01828
   2        2S          0.00931   0.00744  -0.01303   0.00288   0.03143
   3        2PX         0.13462   0.00149   0.02453  -0.03721  -0.11840
   4        2PY         0.09203   0.09824  -0.10047  -0.04635   0.03910
   5        2PZ         0.04696  -0.07270  -0.01633   0.00060   0.02589
   6        3S         -0.02625  -0.01865   0.04187  -0.00738  -0.09154
   7        3PX         0.20416   0.00543   0.04275  -0.05787  -0.18976
   8        3PY         0.14202   0.14784  -0.15869  -0.07143   0.06420
   9        3PZ         0.07333  -0.11604  -0.03162  -0.00101   0.05016
  10        4S         -0.03637  -0.03408   0.00518  -0.02920  -0.04301
  11        4PX         0.10524   0.00474   0.01632  -0.05947  -0.12746
  12        4PY         0.07777   0.09471  -0.10073  -0.05653   0.03843
  13        4PZ         0.03963  -0.07460  -0.03487  -0.00286   0.05120
  14        5S          0.04401  -0.09536   0.16877  -0.02469  -0.00235
  15        5PX         0.01084   0.00080   0.02276  -0.01376   0.00282
  16        5PY        -0.00436   0.02144  -0.02302   0.00131   0.01045
  17        5PZ         0.00349  -0.00113   0.01721  -0.00463  -0.00259
  18        6D 0        0.00407  -0.00762  -0.00471   0.00047   0.00783
  19        6D+1       -0.00187  -0.00618   0.00304   0.00298   0.00092
  20        6D-1       -0.00407  -0.00013   0.00112   0.00353   0.00464
  21        6D+2       -0.00824  -0.00743   0.00807   0.00797   0.00440
  22        6D-2       -0.00498   0.00419  -0.00542   0.00120   0.00894
  23        7D 0        0.00795  -0.01357  -0.01322   0.00304   0.02040
  24        7D+1        0.00111  -0.00782   0.00294   0.00594   0.00408
  25        7D-1       -0.00003  -0.00075   0.00290   0.00877   0.00866
  26        7D+2       -0.00931  -0.01271   0.01606   0.02045   0.01304
  27        7D-2       -0.00422   0.00007  -0.00921   0.00244   0.01634
  28        8F 0        0.00030  -0.00139  -0.00211   0.00017   0.00374
  29        8F+1        0.00126  -0.00263  -0.00190   0.00027   0.00274
  30        8F-1       -0.00062   0.00066   0.00132   0.00050  -0.00098
  31        8F+2        0.00288   0.00027  -0.00015  -0.00018  -0.00072
  32        8F-2        0.00029   0.00154  -0.00154  -0.00002   0.00204
  33        8F+3        0.00022   0.00001   0.00003   0.00088   0.00176
  34        8F-3       -0.00003   0.00048  -0.00120  -0.00043   0.00100
  35 2   C  1S          0.00503  -0.02035  -0.00508   0.00228   0.00738
  36        2S          0.00842  -0.03456  -0.00863   0.00394   0.01244
  37        2PX         0.01231   0.08118   0.02834   0.04767   0.02957
  38        2PY         0.10846  -0.09956   0.04333   0.05717   0.01923
  39        2PZ        -0.01377   0.01275  -0.09914  -0.00403   0.12191
  40        3S         -0.02451   0.09544   0.02595  -0.01445  -0.03684
  41        3PX         0.02188   0.13302   0.04516   0.07702   0.04658
  42        3PY         0.16652  -0.15228   0.06541   0.08925   0.03161
  43        3PZ        -0.01977   0.01950  -0.15787  -0.00573   0.19500
  44        4S         -0.01696   0.15427   0.03992   0.04298  -0.02214
  45        4PX         0.02093   0.04482   0.03966   0.08160   0.04016
  46        4PY         0.07067  -0.05753   0.05437   0.07161   0.01445
  47        4PZ        -0.01680   0.00518  -0.09631  -0.00911   0.12350
  48        5S         -0.01216   0.11891  -0.16120  -0.06176   0.07943
  49        5PX         0.01516  -0.03322   0.04718  -0.00717  -0.00999
  50        5PY        -0.02229  -0.00159  -0.05326  -0.01844   0.00798
  51        5PZ         0.00475  -0.03485   0.03457  -0.01357   0.00113
  52        6D 0        0.00175  -0.00223   0.00275   0.00101  -0.00298
  53        6D+1       -0.00121  -0.00383   0.00629   0.00134  -0.01176
  54        6D-1        0.00211  -0.00439  -0.00479   0.00404   0.01176
  55        6D+2       -0.00064  -0.00387   0.00774   0.00576  -0.00006
  56        6D-2       -0.00888   0.01189  -0.00067  -0.00202   0.00044
  57        7D 0       -0.00168   0.00088  -0.00133  -0.00373  -0.00465
  58        7D+1       -0.00404  -0.00696   0.01055   0.00844  -0.02390
  59        7D-1       -0.00125  -0.00902  -0.00980   0.00997   0.02505
  60        7D+2       -0.01026  -0.00912   0.01162   0.01379   0.00637
  61        7D-2       -0.01607   0.02289   0.00959  -0.00291   0.00070
  62        8F 0        0.00042   0.00025   0.00248   0.00002  -0.00150
  63        8F+1        0.00044  -0.00230  -0.00135  -0.00090   0.00075
  64        8F-1       -0.00099   0.00200   0.00029  -0.00071  -0.00172
  65        8F+2        0.00088  -0.00039  -0.00106  -0.00025  -0.00118
  66        8F-2        0.00000   0.00051   0.00207  -0.00016  -0.00426
  67        8F+3        0.00314  -0.00044   0.00008   0.00025   0.00016
  68        8F-3        0.00021  -0.00223   0.00050   0.00018   0.00062
  69 3   O  1S         -0.00902   0.00500   0.01759  -0.01654  -0.00086
  70        2S         -0.01525   0.00848   0.02978  -0.02798  -0.00153
  71        2PX         0.00429  -0.06022  -0.03632  -0.03161   0.01210
  72        2PY         0.00180  -0.00642   0.06862  -0.06094   0.03097
  73        2PZ        -0.01608  -0.00319  -0.01348  -0.02400  -0.02108
  74        3S          0.04505  -0.02651  -0.08886   0.08288   0.00632
  75        3PX         0.00618  -0.09373  -0.05611  -0.04930   0.01850
  76        3PY         0.00342  -0.01022   0.10505  -0.09290   0.04790
  77        3PZ        -0.02464  -0.00500  -0.02261  -0.03644  -0.03242
  78        4S          0.05106  -0.02070  -0.11509   0.11367  -0.00430
  79        4PX         0.00629  -0.07979  -0.04256  -0.04522   0.01641
  80        4PY         0.00495  -0.00597   0.07752  -0.06630   0.03543
  81        4PZ        -0.01806  -0.00183  -0.02584  -0.02411  -0.02961
  82        5S          0.01386  -0.01019  -0.04850   0.05140   0.00318
  83        5PX         0.00024   0.01484   0.00246  -0.00001  -0.00087
  84        5PY         0.00057   0.00024  -0.01529   0.00583   0.00283
  85        5PZ         0.00507  -0.00660  -0.00880   0.01138   0.00519
  86        6D 0       -0.00059  -0.00043  -0.00191   0.00026  -0.00109
  87        6D+1        0.00018  -0.00182  -0.00084  -0.00060  -0.00003
  88        6D-1       -0.00037  -0.00043   0.00141  -0.00228   0.00017
  89        6D+2       -0.00017   0.00078  -0.00185   0.00205  -0.00121
  90        6D-2       -0.00019  -0.00182  -0.00175  -0.00090   0.00004
  91        7D 0       -0.00151  -0.00170  -0.00739   0.00052  -0.00267
  92        7D+1        0.00083  -0.00775  -0.00257  -0.00348   0.00132
  93        7D-1       -0.00120  -0.00120   0.00319  -0.00576   0.00004
  94        7D+2       -0.00187   0.00428  -0.00501   0.00524  -0.00440
  95        7D-2       -0.00038  -0.00759  -0.00559  -0.00350  -0.00084
  96        8F 0       -0.00009  -0.00043  -0.00142   0.00075  -0.00045
  97        8F+1        0.00008  -0.00044   0.00009  -0.00024  -0.00001
  98        8F-1       -0.00042  -0.00012  -0.00091  -0.00033  -0.00064
  99        8F+2       -0.00025   0.00089  -0.00091   0.00138  -0.00061
 100        8F-2        0.00002  -0.00172  -0.00115  -0.00075   0.00013
 101        8F+3        0.00024   0.00064   0.00073   0.00050   0.00031
 102        8F-3       -0.00015   0.00068  -0.00048   0.00096  -0.00073
 103 4   C  1S          0.00925   0.01680  -0.01640   0.00966  -0.00287
 104        2S          0.01556   0.02839  -0.02773   0.01647  -0.00490
 105        2PX        -0.01562  -0.08360  -0.04050  -0.06180  -0.02087
 106        2PY         0.01084  -0.02106   0.03813   0.00918   0.02561
 107        2PZ        -0.02350  -0.02801  -0.08590   0.03935  -0.04349
 108        3S         -0.03892  -0.07555   0.07518  -0.04513   0.01288
 109        3PX        -0.02493  -0.13751  -0.06298  -0.09999  -0.03289
 110        3PY         0.01878  -0.03592   0.06121   0.01596   0.04151
 111        3PZ        -0.03515  -0.04082  -0.13718   0.06351  -0.06710
 112        4S         -0.05432  -0.06164   0.06561  -0.13681   0.00680
 113        4PX        -0.01172  -0.05415  -0.02493  -0.03387  -0.01259
 114        4PY         0.00882  -0.03103   0.00803   0.00244   0.03055
 115        4PZ        -0.00617  -0.01527  -0.07082   0.03431  -0.04670
 116        5S         -0.02244  -0.08768   0.01262   0.02245  -0.02662
 117        5PX         0.01112  -0.01246   0.01349  -0.02579   0.01866
 118        5PY         0.00870  -0.02417   0.03152   0.00723   0.00673
 119        5PZ        -0.00740   0.03087  -0.00928  -0.00764  -0.02096
 120        6D 0       -0.00153  -0.00552  -0.00318  -0.00305  -0.00104
 121        6D+1       -0.00118   0.00001  -0.00007   0.00304  -0.00589
 122        6D-1        0.00111   0.00103   0.00015   0.00058  -0.00088
 123        6D+2        0.00086   0.00542   0.00026   0.00232  -0.00031
 124        6D-2       -0.00259   0.00324   0.00154  -0.00229  -0.00134
 125        7D 0       -0.00172  -0.00725  -0.00431  -0.01164   0.00410
 126        7D+1       -0.00107  -0.00049   0.00975   0.00582  -0.01804
 127        7D-1        0.00126  -0.00026   0.00195   0.00680  -0.00923
 128        7D+2        0.00251   0.01233   0.00028  -0.00057   0.00114
 129        7D-2       -0.01212   0.01011   0.00276  -0.00920  -0.00898
 130        8F 0       -0.00037  -0.00091   0.00074  -0.00083  -0.00117
 131        8F+1       -0.00024  -0.00034   0.00051  -0.00031   0.00024
 132        8F-1       -0.00043   0.00126  -0.00207   0.00033  -0.00056
 133        8F+2       -0.00040  -0.00058  -0.00006  -0.00111   0.00236
 134        8F-2        0.00004  -0.00140  -0.00157   0.00004  -0.00006
 135        8F+3        0.00021   0.00110  -0.00092   0.00083  -0.00040
 136        8F-3        0.00122  -0.00112  -0.00113  -0.00028  -0.00047
 137 5   C  1S          0.00561  -0.00550   0.00368   0.00038  -0.00119
 138        2S          0.00938  -0.00925   0.00612   0.00078  -0.00201
 139        2PX        -0.01908  -0.02800  -0.04944  -0.09120  -0.06342
 140        2PY         0.00084   0.04823  -0.05592   0.08821  -0.03095
 141        2PZ        -0.00783  -0.03640  -0.04118   0.08280  -0.07731
 142        3S         -0.02321   0.02172  -0.01245  -0.00813   0.00698
 143        3PX        -0.02810  -0.04308  -0.07744  -0.13856  -0.09636
 144        3PY         0.00055   0.07589  -0.08937   0.13908  -0.05027
 145        3PZ        -0.01191  -0.05560  -0.06130   0.12502  -0.11705
 146        4S         -0.00002   0.02916  -0.00330   0.04115  -0.01132
 147        4PX        -0.00916  -0.03213  -0.05100  -0.10482  -0.06923
 148        4PY        -0.00690   0.04151  -0.05493   0.06676  -0.01931
 149        4PZ        -0.00982  -0.03069  -0.03034   0.07257  -0.06589
 150        5S         -0.00368   0.08329  -0.03813   0.03675  -0.01623
 151        5PX         0.00610  -0.00625   0.00229  -0.02250  -0.00356
 152        5PY         0.00427  -0.02331   0.00597  -0.00322   0.01014
 153        5PZ        -0.00133   0.01058  -0.00599  -0.00293   0.00108
 154        6D 0        0.00087   0.00437   0.00074   0.00438   0.00518
 155        6D+1        0.00036   0.00210   0.00257  -0.00456   0.00416
 156        6D-1        0.00021   0.00221  -0.00414   0.00934  -0.00492
 157        6D+2       -0.00054   0.00162  -0.00362  -0.00691  -0.00351
 158        6D-2        0.00037  -0.00140   0.00441  -0.00370   0.00191
 159        7D 0       -0.00104   0.00540  -0.00469   0.00677   0.00538
 160        7D+1        0.00145   0.00094   0.00078  -0.00757   0.00384
 161        7D-1        0.00072   0.00744  -0.00126   0.01499  -0.01013
 162        7D+2        0.00034   0.00628  -0.00451  -0.00831   0.00063
 163        7D-2        0.00045   0.00293   0.01056  -0.00304   0.00491
 164        8F 0        0.00029   0.00022   0.00044  -0.00014  -0.00027
 165        8F+1        0.00024   0.00006   0.00078  -0.00026   0.00015
 166        8F-1       -0.00015   0.00015   0.00077   0.00004  -0.00001
 167        8F+2        0.00034   0.00022   0.00050   0.00010   0.00013
 168        8F-2        0.00006   0.00003  -0.00001   0.00003   0.00034
 169        8F+3       -0.00011   0.00058   0.00075   0.00052   0.00021
 170        8F-3       -0.00016  -0.00060  -0.00044  -0.00062  -0.00011
 171 6   H  1S          0.05156  -0.06370  -0.06255   0.01154   0.10112
 172        2S          0.08229  -0.11509  -0.11340   0.01722   0.19064
 173        3S          0.02566  -0.04653  -0.03833   0.03061   0.09015
 174        4S          0.01438   0.00118   0.01338   0.02403  -0.00571
 175        5PX         0.00229   0.00044  -0.00047   0.00165   0.00222
 176        5PY         0.00041   0.00216   0.00259   0.00017  -0.00389
 177        5PZ        -0.00477   0.00535   0.00161  -0.00011  -0.00270
 178        6PX         0.00364   0.00312   0.00036   0.00229   0.00063
 179        6PY         0.00118   0.00530   0.00452   0.00056  -0.00761
 180        6PZ        -0.01019   0.01346   0.00711  -0.00180  -0.00899
 181 7   H  1S         -0.13449  -0.01637   0.02841   0.04635   0.05394
 182        2S         -0.19977  -0.02040   0.04174   0.06557   0.07784
 183        3S         -0.04127  -0.00291   0.00932   0.02485   0.02720
 184        4S         -0.00450   0.00875   0.00374  -0.00462   0.00316
 185        5PX        -0.00995  -0.00091   0.00291   0.00291   0.00186
 186        5PY        -0.00287   0.00167  -0.00108   0.00079   0.00297
 187        5PZ        -0.00388  -0.00190   0.00028   0.00132   0.00252
 188        6PX        -0.01350  -0.00053   0.00503   0.00319  -0.00210
 189        6PY        -0.00468   0.00266  -0.00464  -0.00196   0.00438
 190        6PZ        -0.00430  -0.00337  -0.00023   0.00230   0.00470
 191 8   H  1S          0.07422   0.09167  -0.06485  -0.05035  -0.02017
 192        2S          0.11150   0.13904  -0.09349  -0.06538  -0.02652
 193        3S          0.02581   0.03556  -0.02594  -0.02325  -0.02789
 194        4S          0.00333  -0.00121  -0.00529  -0.00380  -0.01339
 195        5PX         0.00136  -0.00202   0.00233   0.00080  -0.00197
 196        5PY        -0.00555  -0.00710   0.00402   0.00356   0.00238
 197        5PZ         0.00320   0.00034  -0.00221  -0.00087   0.00101
 198        6PX         0.00133  -0.00131   0.00434  -0.00116  -0.00606
 199        6PY        -0.00903  -0.00901   0.00322   0.00250   0.00507
 200        6PZ         0.00466  -0.00052  -0.00514  -0.00075   0.00151
 201 9   H  1S         -0.08464   0.08446  -0.05711  -0.06251  -0.00624
 202        2S         -0.13014   0.11920  -0.08902  -0.09236  -0.00579
 203        3S         -0.02779   0.02601  -0.01110  -0.02731  -0.01972
 204        4S         -0.01707  -0.01760  -0.01642  -0.00655  -0.00578
 205        5PX        -0.00174   0.00447  -0.00127  -0.00053   0.00023
 206        5PY        -0.00672   0.00590  -0.00467  -0.00461   0.00046
 207        5PZ         0.00244  -0.00201  -0.00082   0.00140   0.00293
 208        6PX        -0.00434   0.00550   0.00245   0.00219   0.00089
 209        6PY        -0.01059   0.00522  -0.00961  -0.00587   0.00234
 210        6PZ         0.00261  -0.00270  -0.00283   0.00177   0.00925
 211 10  H  1S         -0.02966  -0.05538  -0.06006  -0.00010  -0.04026
 212        2S         -0.04467  -0.08600  -0.09933   0.01320  -0.06498
 213        3S         -0.00937  -0.02929  -0.02263  -0.00132  -0.01678
 214        4S          0.00527  -0.00438  -0.00189   0.01724   0.01681
 215        5PX         0.00085   0.00005   0.00159  -0.00145   0.00020
 216        5PY        -0.00027  -0.00166  -0.00027   0.00039  -0.00029
 217        5PZ         0.00239   0.00460   0.00441   0.00034   0.00328
 218        6PX         0.00105  -0.00002   0.00123  -0.00622   0.00490
 219        6PY        -0.00066  -0.00249  -0.00168   0.00093   0.00073
 220        6PZ         0.00286   0.00649   0.00686  -0.00052   0.00207
 221 11  H  1S          0.00729   0.05093   0.03116  -0.02334   0.07596
 222        2S          0.00831   0.07948   0.05236  -0.04894   0.12120
 223        3S         -0.00256   0.02387   0.01959  -0.03351   0.05268
 224        4S         -0.00068   0.01435   0.00474  -0.01375   0.00001
 225        5PX        -0.00050   0.00084  -0.00018  -0.00302   0.00139
 226        5PY        -0.00047  -0.00009  -0.00257   0.00242  -0.00240
 227        5PZ         0.00064   0.00386   0.00233  -0.00025   0.00522
 228        6PX        -0.00037  -0.00066  -0.00016  -0.00528  -0.00054
 229        6PY         0.00149   0.00196  -0.00268   0.00848  -0.00439
 230        6PZ        -0.00021   0.00821   0.00422  -0.00239   0.00901
 231 12  H  1S         -0.00303   0.02164  -0.04935   0.13034  -0.04603
 232        2S         -0.00350   0.03201  -0.08029   0.19714  -0.07212
 233        3S          0.00114   0.00804  -0.02566   0.08856  -0.04272
 234        4S         -0.00079  -0.00512   0.00159  -0.00178  -0.00275
 235        5PX        -0.00075  -0.00007  -0.00253   0.00135  -0.00289
 236        5PY        -0.00005  -0.00027   0.00231  -0.00713   0.00237
 237        5PZ        -0.00006  -0.00220   0.00211  -0.00604   0.00106
 238        6PX        -0.00130  -0.00150  -0.00354  -0.00155  -0.00357
 239        6PY         0.00142  -0.00012   0.00334  -0.00818   0.00412
 240        6PZ         0.00045  -0.00468   0.00353  -0.00701  -0.00040
 241 13  H  1S         -0.01900  -0.01542  -0.04464  -0.08159  -0.05398
 242        2S         -0.03307  -0.02437  -0.06706  -0.12848  -0.08138
 243        3S         -0.01323  -0.00262  -0.01777  -0.04095  -0.02290
 244        4S         -0.00843  -0.00324  -0.00721   0.01014  -0.00726
 245        5PX         0.00159   0.00107   0.00339   0.00636   0.00407
 246        5PY         0.00017   0.00138  -0.00100   0.00229  -0.00044
 247        5PZ        -0.00036  -0.00091  -0.00105   0.00153  -0.00204
 248        6PX         0.00400   0.00287   0.00524   0.00984   0.00463
 249        6PY        -0.00014   0.00091  -0.00389   0.00516  -0.00396
 250        6PZ        -0.00057  -0.00148  -0.00274   0.00407  -0.00569
                          16        17        18        19        20
                           O         O         O         O         O
     Eigenvalues --    -0.51726  -0.50457  -0.47994  -0.33029  -0.31511
   1 1   C  1S          0.00472   0.00534  -0.00027   0.00016   0.00321
   2        2S          0.00797   0.00925  -0.00055   0.00021   0.00555
   3        2PX        -0.00308  -0.04884  -0.00073  -0.00505   0.01322
   4        2PY         0.03800   0.01652  -0.01421   0.00184  -0.01618
   5        2PZ        -0.01424  -0.00216  -0.02280   0.00427  -0.06720
   6        3S         -0.01608  -0.02573   0.00563   0.00112  -0.01291
   7        3PX        -0.00251  -0.07608   0.00270  -0.00668   0.02456
   8        3PY         0.05759   0.02645  -0.02537   0.00052  -0.02752
   9        3PZ        -0.01931  -0.00144  -0.03624   0.00806  -0.11114
  10        4S         -0.06331  -0.05387  -0.03335   0.02447  -0.05510
  11        4PX        -0.00871  -0.07450  -0.01135  -0.00377   0.01842
  12        4PY         0.05782   0.01669  -0.01562  -0.00536  -0.03441
  13        4PZ        -0.01927  -0.00410  -0.03822   0.01690  -0.12762
  14        5S         -0.07148  -0.01319  -0.09657  -0.07416  -0.14790
  15        5PX         0.00411   0.00532  -0.02378  -0.01272  -0.02130
  16        5PY         0.00734   0.01177   0.00905   0.01232  -0.01921
  17        5PZ         0.00222   0.00282  -0.00911  -0.01727  -0.04103
  18        6D 0       -0.00129   0.00156  -0.00199  -0.00015  -0.00333
  19        6D+1       -0.00258   0.00142   0.00117   0.00041   0.00197
  20        6D-1       -0.00139   0.00365   0.00151   0.00036   0.00139
  21        6D+2       -0.00474   0.00499   0.00344   0.00100   0.00470
  22        6D-2        0.00119   0.00330  -0.00007   0.00024   0.00077
  23        7D 0        0.00228   0.00733  -0.00247  -0.00025  -0.00762
  24        7D+1       -0.00741   0.00519   0.00145   0.00454   0.00734
  25        7D-1       -0.00511   0.01086   0.00521   0.00029   0.00030
  26        7D+2       -0.01799   0.01742   0.01386   0.00252   0.00993
  27        7D-2       -0.00010   0.00407  -0.00173   0.00175  -0.00136
  28        8F 0       -0.00013   0.00115  -0.00078  -0.00007  -0.00192
  29        8F+1       -0.00040   0.00060  -0.00080   0.00021  -0.00092
  30        8F-1       -0.00021   0.00015   0.00062  -0.00007   0.00021
  31        8F+2       -0.00024   0.00023   0.00020   0.00036   0.00082
  32        8F-2        0.00097   0.00114   0.00021   0.00008  -0.00073
  33        8F+3       -0.00043   0.00143   0.00092   0.00024   0.00098
  34        8F-3        0.00112  -0.00010  -0.00005   0.00018   0.00043
  35 2   C  1S         -0.00163  -0.00811  -0.00833  -0.00076  -0.02962
  36        2S         -0.00292  -0.01393  -0.01436  -0.00131  -0.05169
  37        2PX        -0.02950   0.08411   0.05249   0.00740   0.08031
  38        2PY        -0.06054   0.04447   0.02808   0.00468   0.02162
  39        2PZ         0.01937   0.03026  -0.00715  -0.00281   0.02098
  40        3S          0.00890   0.03662   0.03873   0.00568   0.15097
  41        3PX        -0.05000   0.13502   0.08382   0.01225   0.13553
  42        3PY        -0.09418   0.07304   0.04742   0.00942   0.03193
  43        3PZ         0.03006   0.04755  -0.00993  -0.00681   0.02904
  44        4S          0.03393   0.06252   0.06597  -0.02446   0.20932
  45        4PX        -0.07114   0.08263   0.05107   0.03363   0.09719
  46        4PY        -0.05372   0.08033   0.03672  -0.00237   0.07435
  47        4PZ         0.01012   0.02332  -0.01683  -0.00246   0.04148
  48        5S          0.11694   0.11066   0.08700  -0.15683   0.10623
  49        5PX        -0.01244   0.02290   0.00466  -0.05088   0.01396
  50        5PY         0.03560   0.01836  -0.00072   0.00254   0.07078
  51        5PZ        -0.00014  -0.01588  -0.01928  -0.04429   0.03196
  52        6D 0       -0.00132  -0.00079   0.00146  -0.00195   0.00226
  53        6D+1       -0.00328  -0.00550   0.00373  -0.00090   0.00315
  54        6D-1       -0.00214   0.00625   0.00018  -0.00021  -0.00259
  55        6D+2       -0.00623   0.00465   0.00234  -0.00088   0.00038
  56        6D-2        0.00778  -0.00145   0.00184   0.00022   0.00676
  57        7D 0        0.00238  -0.00042   0.00357  -0.00613   0.00997
  58        7D+1       -0.01236  -0.00540   0.01110  -0.00573   0.01516
  59        7D-1       -0.00756   0.01496   0.00626  -0.00075  -0.01975
  60        7D+2       -0.01897   0.01131   0.00201  -0.00045  -0.00606
  61        7D-2        0.02571  -0.00063   0.00918   0.00811   0.02267
  62        8F 0       -0.00042   0.00021  -0.00053   0.00074  -0.00112
  63        8F+1        0.00072  -0.00141  -0.00125  -0.00056  -0.00316
  64        8F-1        0.00008  -0.00060   0.00020   0.00001   0.00198
  65        8F+2        0.00003  -0.00112   0.00064  -0.00004  -0.00045
  66        8F-2       -0.00043  -0.00117   0.00054  -0.00027  -0.00074
  67        8F+3       -0.00132   0.00163   0.00006  -0.00064   0.00119
  68        8F-3        0.00145  -0.00078   0.00018   0.00036  -0.00064
  69 3   O  1S         -0.01354   0.00512  -0.02504  -0.00011  -0.00200
  70        2S         -0.02292   0.00868  -0.04242  -0.00020  -0.00349
  71        2PX         0.02279  -0.06459  -0.02170   0.01975   0.24026
  72        2PY         0.00282   0.04098  -0.14814  -0.16782   0.01722
  73        2PZ        -0.11000  -0.00376  -0.11789   0.18622  -0.00693
  74        3S          0.06943  -0.02642   0.12980   0.00165   0.01378
  75        3PX         0.03551  -0.09951  -0.03419   0.03049   0.36762
  76        3PY         0.00565   0.06195  -0.22590  -0.25626   0.02666
  77        3PZ        -0.16950  -0.00706  -0.17979   0.28344  -0.01020
  78        4S          0.09301  -0.05694   0.22688  -0.00696   0.00673
  79        4PX         0.02846  -0.08243  -0.04038   0.02985   0.37611
  80        4PY         0.01153   0.04816  -0.17326  -0.26075   0.02499
  81        4PZ        -0.14251  -0.01077  -0.13200   0.28159  -0.01640
  82        5S          0.02134   0.00397   0.08398   0.01388  -0.06565
  83        5PX         0.00315  -0.00617  -0.00076   0.00519   0.10010
  84        5PY         0.00055   0.00579  -0.00206  -0.06210   0.00144
  85        5PZ         0.00327   0.00331   0.00300   0.07725  -0.00452
  86        6D 0       -0.00325  -0.00105  -0.00109   0.00276  -0.00010
  87        6D+1        0.00119  -0.00190   0.00042  -0.00036   0.00236
  88        6D-1       -0.00332   0.00120  -0.00756   0.00040  -0.00001
  89        6D+2       -0.00011  -0.00060   0.00444   0.00159  -0.00037
  90        6D-2        0.00105  -0.00211   0.00045   0.00056   0.00260
  91        7D 0       -0.01173  -0.00341  -0.00260   0.01123   0.00107
  92        7D+1        0.00552  -0.00537  -0.00087  -0.00361   0.00988
  93        7D-1       -0.00830   0.00255  -0.01924   0.00088  -0.00106
  94        7D+2       -0.00180  -0.00186   0.01292   0.00699  -0.00435
  95        7D-2        0.00222  -0.00764  -0.00023   0.00455   0.01114
  96        8F 0       -0.00062  -0.00098   0.00157   0.00163   0.00014
  97        8F+1        0.00076  -0.00042   0.00021  -0.00082   0.00064
  98        8F-1       -0.00287  -0.00016  -0.00286   0.00242  -0.00006
  99        8F+2        0.00066  -0.00052   0.00389   0.00118  -0.00047
 100        8F-2        0.00099  -0.00178   0.00021   0.00027   0.00267
 101        8F+3       -0.00039   0.00104  -0.00029  -0.00064  -0.00131
 102        8F-3       -0.00041   0.00003   0.00166   0.00067  -0.00033
 103 4   C  1S          0.00137   0.00313   0.01461  -0.00153   0.00738
 104        2S          0.00226   0.00553   0.02490  -0.00248   0.01248
 105        2PX         0.02960  -0.07746  -0.04505  -0.00760  -0.03048
 106        2PY         0.13619  -0.01260   0.08117   0.04187  -0.00442
 107        2PZ        -0.04585  -0.05979   0.10351  -0.04507  -0.00412
 108        3S         -0.01016  -0.01728  -0.07756   0.00487  -0.03335
 109        3PX         0.04836  -0.12325  -0.07087  -0.01145  -0.05274
 110        3PY         0.21956  -0.01917   0.13107   0.06498  -0.01087
 111        3PZ        -0.07077  -0.09192   0.16411  -0.07341  -0.00809
 112        4S          0.02362  -0.01960  -0.06965   0.02174  -0.03930
 113        4PX         0.01613  -0.08622  -0.05015   0.00012  -0.04545
 114        4PY         0.11658  -0.02426   0.09500   0.05292  -0.03984
 115        4PZ        -0.05275  -0.06909   0.10498  -0.05289  -0.00407
[...]
  48         V                 0.305151          0.676086
  49         V                 0.320954          0.815895
  50         V                 0.349132          0.709384
  51         V                 0.359526          0.704635
  52         V                 0.375845          0.671017
  53         V                 0.393206          0.854127
  54         V                 0.411072          1.040153
  55         V                 0.429255          0.777412
  56         V                 0.439812          0.900791
  57         V                 0.460571          0.633366
  58         V                 0.473070          0.810520
  59         V                 0.485899          1.143923
  60         V                 0.489628          0.953138
  61         V                 0.533750          0.948557
  62         V                 0.548267          1.047206
  63         V                 0.554314          0.965275
  64         V                 0.570002          1.086493
  65         V                 0.623714          1.044122
  66         V                 0.640990          1.222838
  67         V                 0.643236          1.121735
  68         V                 0.660771          1.346818
  69         V                 0.674310          1.367995
  70         V                 0.682113          1.341299
  71         V                 0.711526          1.295385
  72         V                 0.722635          1.298192
  73         V                 0.740355          1.633106
  74         V                 0.745092          1.366232
  75         V                 0.753913          1.417244
  76         V                 0.760662          1.383641
  77         V                 0.774028          1.683026
  78         V                 0.789492          1.565115
  79         V                 0.817193          1.637924
  80         V                 0.836477          1.712568
  81         V                 0.845337          1.693510
  82         V                 0.863073          1.846300
  83         V                 0.877500          1.511157
  84         V                 0.885958          1.518923
  85         V                 0.902022          2.166447
  86         V                 0.942521          1.429609
  87         V                 0.971273          1.284446
  88         V                 1.000821          1.360982
  89         V                 1.041076          1.388836
  90         V                 1.072500          1.427227
  91         V                 1.093588          1.431069
  92         V                 1.115785          1.382456
  93         V                 1.133131          1.534570
  94         V                 1.154445          1.537465
  95         V                 1.191170          1.558501
  96         V                 1.217086          1.629674
  97         V                 1.243153          1.554861
  98         V                 1.271957          1.729362
  99         V                 1.283449          1.671235
 100         V                 1.290903          1.737054
 101         V                 1.326169          1.706650
 102         V                 1.344463          1.740276
 103         V                 1.371502          1.761139
 104         V                 1.405865          1.863630
 105         V                 1.419707          2.013679
 106         V                 1.430641          1.990384
 107         V                 1.442886          2.056943
 108         V                 1.466561          1.957706
 109         V                 1.474766          2.005481
 110         V                 1.492442          2.136222
 111         V                 1.512471          2.156655
 112         V                 1.537861          2.236457
 113         V                 1.549194          2.307719
 114         V                 1.560156          2.095839
 115         V                 1.571727          2.181449
 116         V                 1.576052          2.281433
 117         V                 1.600836          2.126708
 118         V                 1.627225          2.396115
 119         V                 1.643966          2.662661
 120         V                 1.674507          2.535478
 121         V                 1.688647          2.640468
 122         V                 1.705986          2.573503
 123         V                 1.718565          2.723573
 124         V                 1.753347          2.528651
 125         V                 1.777286          2.703392
 126         V                 1.790677          2.830493
 127         V                 1.803878          2.753848
 128         V                 1.835685          2.762151
 129         V                 1.850429          2.682816
 130         V                 1.869548          2.896510
 131         V                 1.932548          2.696712
 132         V                 2.048223          2.966711
 133         V                 2.191135          2.853518
 134         V                 2.196657          3.331421
 135         V                 2.253764          3.552739
 136         V                 2.470433          3.239518
 137         V                 2.523584          3.186257
 138         V                 2.728978          3.852785
 139         V                 2.752980          3.860934
 140         V                 2.795889          3.802650
 141         V                 2.817873          3.993042
 142         V                 2.872819          4.152116
 143         V                 2.888844          3.968322
 144         V                 2.913704          4.192581
 145         V                 2.962502          4.071847
 146         V                 3.003944          4.306691
 147         V                 3.045437          4.343627
 148         V                 3.067953          4.288832
 149         V                 3.082454          4.268008
 150         V                 3.096258          4.225961
 151         V                 3.143735          4.600744
 152         V                 3.175228          4.208865
 153         V                 3.196740          4.131212
 154         V                 3.205682          4.267486
 155         V                 3.266243          4.526034
 156         V                 3.286325          4.005898
 157         V                 3.291405          4.336200
 158         V                 3.344936          4.479418
 159         V                 3.379364          4.751363
 160         V                 3.397245          4.789487
 161         V                 3.406094          4.898377
 162         V                 3.434698          4.638412
 163         V                 3.477847          4.672390
 164         V                 3.490635          4.735679
 165         V                 3.523768          4.595995
 166         V                 3.534229          5.069563
 167         V                 3.578251          4.952045
 168         V                 3.598809          4.951604
 169         V                 3.608604          5.013854
 170         V                 3.649969          5.114075
 171         V                 3.668848          5.095691
 172         V                 3.716545          5.154967
 173         V                 3.728408          4.922057
 174         V                 3.737523          5.004076
 175         V                 3.766056          5.255457
 176         V                 3.798250          5.358987
 177         V                 3.804656          5.247233
 178         V                 3.846781          5.235076
 179         V                 3.872415          5.340811
 180         V                 3.893625          5.163407
 181         V                 3.938709          5.282000
 182         V                 3.958997          5.227961
 183         V                 3.992888          5.379480
 184         V                 4.028790          5.473970
 185         V                 4.068919          5.871277
 186         V                 4.075495          5.508354
 187         V                 4.102031          5.694121
 188         V                 4.116995          5.713045
 189         V                 4.197784          6.055692
 190         V                 4.249959          6.283341
 191         V                 4.277142          5.610375
 192         V                 4.302124          5.696555
 193         V                 4.351617          5.611509
 194         V                 4.370193          5.860726
 195         V                 4.389949          5.542488
 196         V                 4.408903          5.497926
 197         V                 4.432373          5.409547
 198         V                 4.457168          6.072376
 199         V                 4.478544          5.779280
 200         V                 4.512927          5.749006
 201         V                 4.527374          5.783185
 202         V                 4.529205          5.622709
 203         V                 4.570145          5.964536
 204         V                 4.607581          5.594451
 205         V                 4.613465          5.683618
 206         V                 4.639039          5.610047
 207         V                 4.672452          5.870938
 208         V                 4.704035          5.631978
 209         V                 4.719476          6.025846
 210         V                 4.760734          6.046847
 211         V                 4.826483          5.903124
 212         V                 4.851476          5.653172
 213         V                 4.866874          6.099492
 214         V                 4.926862          6.095949
 215         V                 4.953725          5.681832
 216         V                 4.986073          6.074124
 217         V                 5.033186          6.325696
 218         V                 5.044563          6.062276
 219         V                 5.097747          6.159886
 220         V                 5.240910          6.845819
 221         V                 5.418035          7.050099
 222         V                 5.548447          7.005432
 223         V                 5.616316          6.940815
 224         V                 5.670146          6.686483
 225         V                 5.692704          6.531353
 226         V                 5.704502          7.274247
 227         V                 5.787784          8.790630
 228         V                 5.834836          9.195686
 229         V                 5.898522          8.848456
 230         V                 5.928602          8.330470
 231         V                 5.964963          7.619174
 232         V                 6.028678          8.138804
 233         V                 6.051863          7.947285
 234         V                 6.068443          7.633222
 235         V                 6.128549          7.666956
 236         V                 6.177715          7.576890
 237         V                 6.251524          8.188370
 238         V                 6.644925          8.635111
 239         V                 6.717000          8.547323
 240         V                 7.454227         11.770956
 241         V                 7.563212         10.264423
 242         V                 7.635535         10.359212
 243         V                 8.013651         10.550700
 244         V                 8.059308         10.613634
 245         V                 8.321750         11.059011
 246         V                25.173633         60.501678
 247         V                25.490066         60.557569
 248         V                25.620294         60.682010
 249         V                25.700537         60.673246
 250         V                51.930072        123.771723
 Total kinetic energy from orbitals= 2.306920708715D+02
                          Isotropic Fermi Contact Couplings
        Atom                 a.u.       MegaHertz       Gauss      10(-4) cm-1
     1  C(13)              0.00000       0.00000       0.00000       0.00000
     2  C(13)              0.00000       0.00000       0.00000       0.00000
     3  O(17)              0.00000      -0.00000      -0.00000      -0.00000
     4  C(13)              0.00000       0.00000       0.00000       0.00000
     5  C(13)              0.00000       0.00000       0.00000       0.00000
     6  H(1)               0.00000       0.00000       0.00000       0.00000
     7  H(1)               0.00000       0.00000       0.00000       0.00000
     8  H(1)               0.00000       0.00000       0.00000       0.00000
     9  H(1)               0.00000       0.00000       0.00000       0.00000
    10  H(1)               0.00000       0.00000       0.00000       0.00000
    11  H(1)               0.00000       0.00000       0.00000       0.00000
    12  H(1)               0.00000       0.00000       0.00000       0.00000
    13  H(1)               0.00000       0.00000       0.00000       0.00000
 --------------------------------------------------------
       Center         ----  Spin Dipole Couplings  ----
                      3XX-RR        3YY-RR        3ZZ-RR
 --------------------------------------------------------
     1   Atom        0.000000      0.000000      0.000000
     2   Atom        0.000000      0.000000      0.000000
     3   Atom        0.000000      0.000000      0.000000
     4   Atom        0.000000      0.000000      0.000000
     5   Atom        0.000000      0.000000      0.000000
     6   Atom        0.000000      0.000000      0.000000
     7   Atom        0.000000      0.000000      0.000000
     8   Atom        0.000000      0.000000      0.000000
     9   Atom        0.000000      0.000000      0.000000
    10   Atom        0.000000      0.000000      0.000000
    11   Atom        0.000000      0.000000      0.000000
    12   Atom        0.000000      0.000000      0.000000
    13   Atom        0.000000      0.000000      0.000000
 --------------------------------------------------------
                        XY            XZ            YZ
 --------------------------------------------------------
     1   Atom        0.000000      0.000000      0.000000
     2   Atom        0.000000      0.000000      0.000000
     3   Atom        0.000000      0.000000      0.000000
     4   Atom        0.000000      0.000000      0.000000
     5   Atom        0.000000      0.000000      0.000000
     6   Atom        0.000000      0.000000      0.000000
     7   Atom        0.000000      0.000000      0.000000
     8   Atom        0.000000      0.000000      0.000000
     9   Atom        0.000000      0.000000      0.000000
    10   Atom        0.000000      0.000000      0.000000
    11   Atom        0.000000      0.000000      0.000000
    12   Atom        0.000000      0.000000      0.000000
    13   Atom        0.000000      0.000000      0.000000
 --------------------------------------------------------


 ---------------------------------------------------------------------------------
              Anisotropic Spin Dipole Couplings in Principal Axis System
 ---------------------------------------------------------------------------------

       Atom             a.u.   MegaHertz   Gauss  10(-4) cm-1        Axes

              Baa     0.0000     0.000     0.000     0.000  1.0000  0.0000  0.0000
     1 C(13)  Bbb     0.0000     0.000     0.000     0.000 -0.0000  1.0000  0.0000
              Bcc     0.0000     0.000     0.000     0.000  0.0000  0.0000  1.0000
 
              Baa     0.0000     0.000     0.000     0.000  1.0000  0.0000  0.0000
     2 C(13)  Bbb     0.0000     0.000     0.000     0.000 -0.0000  1.0000  0.0000
              Bcc     0.0000     0.000     0.000     0.000  0.0000  0.0000  1.0000
 
              Baa     0.0000    -0.000    -0.000    -0.000  1.0000  0.0000  0.0000
     3 O(17)  Bbb     0.0000    -0.000    -0.000    -0.000 -0.0000  1.0000  0.0000
              Bcc     0.0000    -0.000    -0.000    -0.000  0.0000  0.0000  1.0000
 
              Baa     0.0000     0.000     0.000     0.000  1.0000  0.0000  0.0000
     4 C(13)  Bbb     0.0000     0.000     0.000     0.000 -0.0000  1.0000  0.0000
              Bcc     0.0000     0.000     0.000     0.000  0.0000  0.0000  1.0000
 
              Baa     0.0000     0.000     0.000     0.000  1.0000  0.0000  0.0000
     5 C(13)  Bbb     0.0000     0.000     0.000     0.000 -0.0000  1.0000  0.0000
              Bcc     0.0000     0.000     0.000     0.000  0.0000  0.0000  1.0000
 
              Baa     0.0000     0.000     0.000     0.000  1.0000  0.0000  0.0000
     6 H(1)   Bbb     0.0000     0.000     0.000     0.000 -0.0000  1.0000  0.0000
              Bcc     0.0000     0.000     0.000     0.000  0.0000  0.0000  1.0000
 
              Baa     0.0000     0.000     0.000     0.000  1.0000  0.0000  0.0000
     7 H(1)   Bbb     0.0000     0.000     0.000     0.000 -0.0000  1.0000  0.0000
              Bcc     0.0000     0.000     0.000     0.000  0.0000  0.0000  1.0000
 
              Baa     0.0000     0.000     0.000     0.000  1.0000  0.0000  0.0000
     8 H(1)   Bbb     0.0000     0.000     0.000     0.000 -0.0000  1.0000  0.0000
              Bcc     0.0000     0.000     0.000     0.000  0.0000  0.0000  1.0000
 
              Baa     0.0000     0.000     0.000     0.000  1.0000  0.0000  0.0000
     9 H(1)   Bbb     0.0000     0.000     0.000     0.000 -0.0000  1.0000  0.0000
              Bcc     0.0000     0.000     0.000     0.000  0.0000  0.0000  1.0000
 
              Baa     0.0000     0.000     0.000     0.000  1.0000  0.0000  0.0000
    10 H(1)   Bbb     0.0000     0.000     0.000     0.000 -0.0000  1.0000  0.0000
              Bcc     0.0000     0.000     0.000     0.000  0.0000  0.0000  1.0000
 
              Baa     0.0000     0.000     0.000     0.000  1.0000  0.0000  0.0000
    11 H(1)   Bbb     0.0000     0.000     0.000     0.000 -0.0000  1.0000  0.0000
              Bcc     0.0000     0.000     0.000     0.000  0.0000  0.0000  1.0000
 
              Baa     0.0000     0.000     0.000     0.000  1.0000  0.0000  0.0000
    12 H(1)   Bbb     0.0000     0.000     0.000     0.000 -0.0000  1.0000  0.0000
              Bcc     0.0000     0.000     0.000     0.000  0.0000  0.0000  1.0000
 
              Baa     0.0000     0.000     0.000     0.000  1.0000  0.0000  0.0000
    13 H(1)   Bbb     0.0000     0.000     0.000     0.000 -0.0000  1.0000  0.0000
              Bcc     0.0000     0.000     0.000     0.000  0.0000  0.0000  1.0000
 

 ---------------------------------------------------------------------------------


 Test job not archived.
 1\1\GINC-SMP-N227\SP\ROHF\CBSB3\C4H8O1\BLZ11\16-Oct-2025\0\\# SP ROHF/
 CBSB3 Pop=(Full) scf=tight IOp(6/27=122)\\molecule\\0,1\C,0,-1.6415517
 23,0.4835758213,0.0358348381\C,0,-0.7689117781,-0.5043819637,0.5178519
 65\O,0,0.4107973266,-1.6963385621,-0.8028335662\C,0,0.7284536352,-0.73
 57642339,0.0379502412\C,0,1.356878427,0.53206654,-0.5472267713\H,0,-0.
 8824348782,0.367526093,1.3275902652\H,0,-2.7124724117,0.3338691766,-0.
 0241648757\H,0,-1.246728808,1.4310323328,-0.3044559246\H,0,-1.21121594
 12,-1.4108915787,0.9073389582\H,0,1.3144394058,-1.0349501992,0.9316794
 565\H,0,0.7977569988,0.8684741212,-1.4199293937\H,0,1.4239595829,1.338
 2225366,0.1894870815\H,0,2.367802164,0.2897779163,-0.8741592741\\Versi
 on=ES64L-G16RevC.01\State=1-A\HF=-230.8736089\RMSD=5.090e-09\Dipole=-1
 .7482932,2.2076938,1.3835019\Quadrupole=5.2672439,-4.2568798,-1.010364
 1,-0.6546541,-0.2176861,-3.1690192\PG=C01 [X(C4H8O1)]\\@


 IT IS BETTER TO THINK YOU ARE HALF DRY THAN TO KNOW YOU
 ARE ALL WET.  -- SNOOPY
 Job cpu time:       0 days  0 hours  1 minutes 15.5 seconds.
 Elapsed time:       0 days  0 hours  1 minutes 16.0 seconds.
 File lengths (MBytes):  RWF=     48 Int=      0 D2E=      0 Chk=      5 Scr=      1
 Normal termination of Gaussian 16 at Thu Oct 16 11:11:42 2025.
/var/spool/slurmd/job21172167/slurm_script: line 23: crc-job-stats.py: command not found
